216
step:0 columns:species,position dt:1 cell:7.394688177298845,7.394688177298845,7.394688177298845 model:bernu_hiwatari_hansen_pastore potential_energy_per_particle:1.8746927108811235 
2 -2.651562 3.173749 2.959122
2 2.749918 -2.126816 -2.252073
2 -0.005716 0.629569 -1.699072
2 1.742089 2.804033 0.445184
2 3.586907 0.021656 1.458155
2 -2.906586 2.234512 -3.269883
1 -1.071412 -3.580340 2.733361
2 -0.312990 -0.700599 -2.307622
1 3.369533 -1.869285 2.643086
1 -3.159682 1.984124 2.836870
2 1.893869 -0.292120 -3.455194
2 0.471940 1.411657 2.530550
1 -1.265075 3.124538 -1.570117
1 1.394793 -3.474160 0.951374
2 -3.516770 0.981171 3.587971
1 -1.518048 2.037774 -3.114384
2 -0.811213 1.692601 1.326690
2 -2.360285 2.920795 -0.750368
1 2.215313 0.033224 -0.017979
2 0.826456 -2.499292 -0.798691
1 -3.430572 -1.196768 0.022269
2 3.126009 1.662138 -2.659045
2 2.084564 -1.716337 1.835712
1 -2.079061 -0.964830 -3.063821
1 3.645615 3.254409 0.475167
1 -2.894695 -2.651474 -0.722958
2 -1.433792 0.433962 0.396899
2 1.148065 0.064978 -2.205745
1 -1.731540 1.820670 -1.002618
1 2.380952 2.086625 1.447758
1 2.448388 -0.448886 -2.235906
2 -1.332932 2.731473 3.307371
2 -0.491568 -1.963754 -3.034877
1 1.058067 0.089692 0.400644
2 2.153638 2.400029 -3.327524
1 3.410044 1.291555 1.265084
1 -2.962653 1.012167 2.409331
2 3.336657 -3.425592 -2.219755
2 -2.108668 -0.781557 -0.181397
1 3.133367 -2.900264 2.793836
1 3.275271 0.365310 -2.749176
1 -0.319469 -0.899167 3.368134
1 -3.019455 -1.592013 -0.897886
1 3.384610 3.011172 -3.132450
1 -1.325149 -1.550691 3.640823
1 0.211295 -2.592693 0.742221
2 -1.657456 0.653313 1.981923
2 -0.478826 -1.577764 1.262372
2 -2.326145 -0.645348 -1.678509
1 2.043929 3.280167 3.068202
1 2.233854 -2.388338 -0.514079
2 0.246235 3.529061 1.127365
1 -2.950742 -1.508580 1.887051
2 0.969063 2.632060 3.272168
2 -0.187147 3.623742 -1.262510
1 3.241597 -0.397549 0.214370
1 -1.953277 -3.142028 3.030015
1 -0.134446 -0.017673 1.047739
1 1.749078 0.927236 2.685830
2 -0.941746 -0.595887 -1.094748
1 -3.095345 -0.116141 0.361070
1 0.752217 -3.399571 0.049559
2 -0.663616 1.574902 -0.121339
1 0.863668 -3.335951 -1.874090
2 0.746954 -2.397991 1.873166
2 0.323610 -2.446922 3.303649
1 -2.320912 1.178112 -3.093170
2 3.403494 -2.301811 -0.995231
2 -2.292545 0.567521 -0.770194
2 -1.817618 3.435124 -2.958140
1 -0.944909 2.748781 -0.488338
2 2.914814 2.159824 0.287008
1 -0.019913 3.476574 3.488225
2 -0.049247 0.459671 -3.143992
1 -2.718358 -1.660718 0.804235
1 -0.909844 -0.751533 0.283412
2 -0.709833 0.482986 2.993816
1 3.258289 2.090611 3.511259
2 3.413556 3.266638 3.025663
2 0.498829 2.121914 1.215261
2 2.221418 -0.406731 1.122809
1 -1.108467 -2.423649 2.963364
1 2.821284 0.713610 0.630203
1 1.677344 -2.489797 -1.648240
1 -1.092313 0.752945 -1.106677
2 0.796786 0.095882 3.197068
1 0.668251 1.398447 -0.077061
2 -3.499891 -3.477473 1.632199
2 3.550846 -2.186221 -3.509949
1 -1.405004 3.292759 0.391849
1 -1.075775 -0.504387 -3.384681
1 0.537374 -0.418612 -1.131671
2 2.048130 -1.711950 3.529945
1 1.969793 -3.346101 -2.212732
1 -1.759831 2.307490 -2.072516
2 -2.415366 -0.465334 1.322283
2 -1.990000 2.432803 1.894646
1 2.836674 -1.149938 -0.801963
2 1.444707 -2.187051 0.503037
1 -0.763653 1.746003 2.546847
1 -2.656142 2.981648 0.911915
1 0.683804 2.488486 -2.939045
1 -0.458396 -3.593375 0.131713
1 0.467898 0.913324 0.940927
1 0.450259 1.547956 -2.418565
2 1.129596 0.244485 1.798770
2 -1.947789 1.883862 0.393569
1 -2.319661 -1.952364 -0.074882
2 -3.475016 1.029205 -0.169271
2 1.670942 2.014056 -0.697289
2 2.502253 -3.321744 0.187318
2 -1.111085 -3.114930 -2.169329
1 -3.166864 2.268580 0.380657
2 0.866554 -0.950959 1.110698
2 -3.138051 -3.462389 -3.346545
2 -2.661731 -1.424610 3.225616
2 2.468618 2.917434 -1.947776
1 2.491635 0.989396 3.446210
2 1.533534 3.691653 -0.888523
2 1.668282 1.301980 0.700095
2 -1.957063 -2.098566 -1.456762
1 0.216694 -3.359065 -3.025487
1 -0.303163 0.714530 1.871733
1 2.213180 0.652667 -2.765695
2 -0.237325 1.855691 -3.634537
1 0.557330 1.646230 -1.172363
2 -1.918090 -2.469291 -3.154573
2 -3.233981 -0.665058 -3.120540
2 0.938486 -1.268759 2.654125
2 -0.155121 2.832696 2.380436
1 2.871263 3.101884 1.224617
2 0.737982 -1.161554 -3.215005
1 -1.154404 1.022513 -3.357627
1 -1.131757 -0.481617 1.344668
2 0.126318 -1.302577 -0.159002
2 -1.406888 -0.726210 2.633364
2 2.496108 -3.272032 -3.360609
1 2.650401 2.672478 2.291137
2 1.464839 3.064959 1.907970
2 -0.437403 3.008216 -2.714855
2 0.335913 2.655346 -0.335017
1 2.922161 -1.178424 -3.092241
1 0.474040 -3.463246 2.595147
1 0.134379 -2.621898 -2.107105
1 -0.090249 -0.444689 2.096288
1 1.115368 -3.521310 3.575970
1 2.489091 1.028134 -0.352095
2 -3.687485 -3.655374 -0.687010
1 3.063750 1.628358 2.408910
1 2.075461 1.924192 2.867981
1 -0.692628 1.372067 -2.470709
1 1.595253 1.669243 1.947672
2 2.734592 -1.629739 0.480298
2 -0.524015 2.072683 -1.465579
2 -3.679692 -2.669314 0.412879
2 2.178574 -0.396601 2.584112
2 -3.493030 2.412096 1.727441
2 1.741844 -2.899382 2.790616
2 -3.123954 -2.024312 -2.286836
2 -2.764151 0.991708 1.171493
2 -3.131201 -0.230853 2.697758
1 -1.219016 -1.696519 -0.331523
1 -3.249947 -0.280374 -0.693728
1 3.454435 -2.050640 1.537990
1 -1.983812 1.244542 -1.912783
1 2.638906 3.011871 -0.660175
2 -1.481896 0.258384 -2.368099
2 1.463904 -1.092162 -0.316833
1 1.932194 -0.363053 -1.277737
2 -2.026756 -3.610574 1.785914
2 2.466120 -3.139170 1.610370
2 -0.029738 0.245114 -0.227866
2 -3.580682 0.582913 -1.584259
2 -1.437759 -2.735956 0.682025
1 2.573012 -3.248291 -1.182795
1 3.683427 -1.128882 1.053405
2 1.331545 0.671383 -0.877119
2 -1.809191 -2.002669 2.025411
1 2.025976 -1.397998 -1.538852
1 -2.831233 1.707945 -1.133581
1 -3.062949 1.530666 -2.282394
2 -1.393530 -3.148135 -0.803946
2 -1.950295 1.527518 3.001849
2 3.578400 -0.906871 -1.745124
1 3.114473 0.044225 3.694080
1 -0.495394 -1.580582 2.634308
1 3.150171 0.458886 2.568053
1 -1.408041 -1.296423 -2.342642
1 -3.577358 2.521187 -0.639058
1 -1.707115 -1.437252 0.803882
1 -0.868219 -3.209060 -3.521859
2 1.203452 -2.441657 -2.970094
2 0.791231 2.733152 -1.738197
2 -0.449844 -1.956061 -1.327019
1 2.970257 -0.003756 -0.854178
2 -2.952622 -2.593164 2.652311
1 -2.654830 -2.563787 1.200703
1 1.426976 3.343102 -2.816819
2 -2.090517 0.158164 3.657436
2 -2.518604 -3.423882 0.164678
1 2.518987 0.593191 -1.655229
2 -3.365226 2.773248 -1.902618
1 -1.111677 3.135768 1.368402
1 -0.558634 2.652911 0.529662
2 -2.660621 -3.322027 -1.860911
2 -0.566108 -2.937317 1.835805
1 2.305585 0.864634 1.665534
2 3.046323 1.739926 -1.251231
2 1.245035 1.231606 -3.378744
2 0.757161 -1.439078 -1.792493
1 -0.385552 -2.544034 -0.163956
1 3.260805 -0.896052 3.277297
1 -2.773190 0.313624 -2.515373
1 1.778912 -1.158880 -2.555978
2 1.687917 1.552719 -2.107714
1 3.286426 -0.863339 2.192425
