300
step:2052 columns:species,position dt:0.006 model:coslovich_pastore cell:5.659452495405572,5.659452495405572,5.659452495405572 
A 1.943298 2.028899 -1.611349
A 0.609409 1.920695 -2.719642
A 1.273366 0.433302 -1.761513
A -0.842715 1.589276 2.796927
A 1.649940 1.737902 -2.694786
A -0.721581 2.077986 0.300740
A 1.710458 -0.339328 1.039075
A 0.688519 -0.024723 1.222490
A 0.428904 1.009298 -2.082328
A -0.723242 -0.290061 1.162604
A -1.434141 0.106308 1.964468
A 0.346220 1.137527 -1.028777
A -0.374020 0.298606 -1.232138
A -0.732578 -1.058693 2.297335
A -2.668283 2.441083 -0.315774
A -0.046867 -0.508828 -1.964298
A 2.633502 -0.331357 -1.202975
A -1.403565 1.863026 1.171642
A -1.218508 2.243745 -1.250389
A -1.459847 1.202284 1.995794
A -1.823651 -2.541524 -1.487819
A -0.016838 -2.594191 -0.360587
A -0.257688 -2.291449 -2.358655
A -1.337434 0.811813 -1.240691
A 0.408202 1.033440 0.972061
A 0.253216 2.630435 -1.811261
A 0.137111 -0.968322 1.121301
A -2.488777 -1.311053 -2.361371
A -0.459624 0.646511 -2.621116
A 0.962361 -0.539088 -1.440831
A 0.881235 0.014716 2.289817
A -2.370557 1.763762 -2.487107
A -2.468425 2.826617 -2.410174
A -1.255751 -2.210309 0.998833
A -0.085631 -0.279136 2.614022
A -1.130720 1.172136 -0.266860
A -0.175272 2.071584 -0.970862
A 1.946114 0.644376 -0.169632
A -1.911136 2.788192 1.488798
A -2.084027 1.764545 -0.924565
A 0.839564 0.811524 -0.074679
A 2.491371 -2.213978 2.759204
A 1.660753 -1.778431 -2.348604
A 2.760921 1.342722 -1.674114
A -1.431210 -1.152103 0.979818
A -1.623107 -2.597008 2.562080
A 1.530784 2.342154 -0.022292
A 2.500368 1.303393 0.329059
A 1.249946 -0.910692 0.203234
A -1.622807 -0.776989 -2.043427
A -0.816426 0.179148 0.293932
A 2.057089 -0.485923 -0.310721
A 2.758928 -0.145875 0.813758
A 0.649371 -0.256106 -0.386651
A -2.231603 -1.144983 1.664060
A 2.633540 -2.802834 1.437580
A -1.958979 -2.389183 -0.458964
A 1.594110 0.641547 2.700659
A 1.118192 -2.733273 2.139104
A -0.431119 -2.577963 1.625821
A 0.081008 2.336591 0.978883
A 2.592477 -1.779175 1.809527
A 2.289327 1.489018 1.453276
A -2.500033 -0.160290 1.879859
A -2.577261 1.401520 2.204627
A -1.000670 -2.585727 -0.017913
A -0.416308 -0.531880 -0.481919
A -2.597463 -1.373487 -1.254881
A 2.261437 -1.844384 -0.832548
A 2.434069 2.582218 0.419541
A 1.368258 -1.577182 -1.416846
A 1.263446 1.220566 1.596521
A 2.038315 2.294470 2.114738
A -1.449279 1.476531 -2.061985
A 2.241472 -1.950314 0.322946
A 1.201579 -1.860898 0.725311
A -1.873431 -1.313887 -0.040100
A -2.041496 1.259247 0.426508
A 2.094098 2.774494 -0.862024
A 1.700781 -0.760428 2.022054
A 0.589259 1.994843 1.915028
A 0.646925 -2.729055 0.452321
A 0.065922 -1.668081 2.022368
A 1.775413 1.120345 -1.191439
A -2.138374 0.138493 -0.693612
A 2.283198 0.128030 -2.113381
A 2.185633 -0.858213 -2.692777
A 1.487071 -1.706755 1.721367
A 2.712337 0.470660 2.695417
A -1.681766 -1.445002 2.519033
A -1.583039 -0.780871 -0.929353
A 0.736632 -2.024992 2.771086
A -1.179454 -1.748589 -1.928635
A -1.424022 0.073204 -2.604897
A -0.576639 2.601190 2.557364
A 0.475320 -1.824303 -0.956369
A 2.776970 -1.083983 0.292667
A -1.946281 0.309868 0.365054
A -0.427027 -1.312802 -1.296138
B -1.748343 -2.521755 1.047492
B -1.182681 -1.202935 2.684743
B -1.866231 -0.334102 -0.765651
B 0.591944 2.500450 0.783445
B 1.722463 1.693604 -1.206416
B 0.250337 2.028866 1.458862
B -1.457526 -1.318244 -2.221962
B 2.429365 2.713201 1.943596
B -0.720248 -1.986820 -2.160717
B -0.076272 0.783400 -2.229439
B 1.768535 1.987748 -2.200914
B -0.840563 -2.289257 1.354920
B 1.152665 1.944286 2.820265
B 1.917574 0.783768 -0.728265
B -2.624037 -0.020715 -0.962160
B 2.407577 -2.506939 0.365040
B 1.718153 2.592010 -0.495461
B 0.895269 1.236470 1.174446
B -0.723975 2.114146 -1.011871
B 1.903205 -0.588674 1.515255
B 0.861163 -2.228286 0.588695
B -1.307776 0.672110 2.007243
B -0.991147 2.528257 0.111561
B 0.772547 2.527889 1.923363
B 2.696695 1.467183 1.805771
B 0.699602 0.301178 -0.277508
B 2.367871 1.490473 0.867465
B 0.741966 2.793109 -1.427756
B -2.468661 2.706764 1.427568
B -0.377645 -0.643170 2.250335
B 2.040938 1.942681 1.684332
B 0.503043 0.483540 0.984982
B 2.719707 0.286078 -2.437342
B -2.663801 -1.498913 1.548382
B 0.541304 -1.688717 2.325724
B 1.940405 2.300661 0.337717
B -2.763029 -0.049378 1.406726
B -0.363930 -2.636353 -2.805665
B 1.142128 -1.782349 -2.643376
B -1.362881 1.932584 -1.686954
B 1.895259 -1.535260 -1.091347
B 2.615367 2.688817 -0.648033
B -1.821111 1.658896 0.815119
B 2.782842 -2.458847 -2.475360
B 1.798909 1.146718 1.475796
B -0.246204 -0.056527 -1.648569
B 0.017334 2.509898 -0.622933
B 2.545752 -0.762235 -0.096505
B 1.594793 2.635853 2.170223
B 0.319758 1.927676 2.404234
B -2.601070 2.297457 -2.398349
B -0.050562 -0.461971 -2.513782
B 0.006040 0.683585 -1.080292
B -0.666095 0.174956 0.840582
B -2.191801 -0.850531 -2.179316
B 1.957077 0.060756 -0.120987
B 0.076228 -1.200383 0.642643
B -0.959865 1.914065 0.831585
B 1.226857 -1.467066 0.281079
B 0.032508 2.203694 -1.533682
B -0.881641 0.520185 -1.342905
B -2.811553 2.296736 0.190365
B 0.462806 2.310430 -2.313197
B 2.183608 -0.074835 0.845534
B -0.638272 2.788989 2.027828
B -1.065237 -1.032592 1.816968
B 2.137607 0.461030 2.623053
B 1.262564 -0.079938 -1.530515
B 1.177249 0.223833 2.779417
B -2.178471 -1.437177 2.817986
B -2.434333 1.779134 2.602036
B 1.994301 -0.975053 2.442107
B -2.423893 1.977311 -0.552864
B -0.987906 0.542417 -2.443589
B 2.469592 1.900069 -1.730909
B -2.353562 -2.750435 -0.235027
B -2.739942 -1.449155 -1.850842
B 1.399632 0.737923 0.044059
B 2.000104 -2.360034 -0.889233
B -2.585279 1.377937 0.262551
B -2.398814 -1.214047 0.095514
B -2.382196 0.036133 0.580161
B -1.542236 -1.077269 -0.452667
B -1.263926 2.653458 2.655757
B -0.888765 -1.574691 -1.503888
B 0.873492 0.538384 -2.116141
B 0.122640 -1.269463 1.578693
B 1.775560 0.425610 -2.145218
B -1.766282 0.484445 -0.993474
B -0.209290 -1.012803 -1.829682
B -2.477942 1.596956 -1.313909
B 0.448029 1.241339 -1.579923
B -2.776135 -0.661309 0.682744
B -2.046345 -2.756155 -2.771472
B 0.590563 0.077794 1.774575
B 2.034264 2.020826 2.638720
B -2.581792 1.339438 -2.182782
B -2.687226 -0.832877 -1.203431
B -2.491773 -0.712569 1.846269
B 2.169203 -0.401985 -2.379781
B -0.319269 0.213606 2.652562
B 1.060789 2.709259 0.140366
B 2.746025 -2.043959 2.292682
B -0.921125 1.479295 -2.312931
B -0.030902 -2.181017 1.807097
B -1.958250 -1.901127 -0.217631
B -1.617851 2.325138 1.383209
B -1.651558 -2.126318 -1.835735
B -0.587591 -0.953148 -0.820648
B -1.263964 1.564917 1.606369
B 1.655528 1.149737 -2.765741
B -1.741111 1.289162 -0.086815
B -1.485123 1.050076 -1.705549
B -0.981934 -0.083932 1.667576
B 1.620014 -1.884113 -1.826198
B -0.228365 -0.524997 1.278766
B 0.742227 1.146018 -0.558238
B -1.958048 0.004761 1.761619
B -0.467534 1.132938 2.730833
B 1.984055 -2.023279 -2.749544
B -1.656759 -0.691157 -1.491293
B -2.806592 0.972757 2.494757
B -0.210169 2.112960 0.544741
B 1.180891 0.857460 2.017804
B 2.284733 1.562684 -0.122119
B 0.218479 -1.998711 -2.533904
B 0.127401 -0.413927 -0.319526
B -1.959845 -0.974059 1.174968
B 2.567277 -2.240103 1.382756
B 1.784693 -1.229186 -2.431879
B -1.924682 0.787819 0.644826
B 2.820622 -1.740699 -0.920250
B -0.001789 -1.643977 -1.155972
B -1.256150 1.415962 2.492308
B -0.103645 2.814716 1.206298
B -1.828526 1.744159 -2.402025
B 2.402588 0.009128 -1.581360
B 1.274502 -0.001198 1.134478
B 1.785926 -1.988611 0.650236
B -2.773719 0.166051 2.263967
B 0.411407 1.440639 -2.531420
B -0.876563 1.640347 -0.040384
B -0.596359 2.095661 2.810952
B -2.250481 -2.789598 -1.880071
B -0.545619 -2.396020 -0.247618
B 1.571581 -0.722504 0.618643
B 0.201825 -2.622904 0.148819
B -2.056051 1.229067 1.992752
B -2.068527 -2.354332 -1.014055
B -1.908690 -1.435794 1.997262
B -0.643853 -0.211281 -0.056704
B -1.601738 2.057052 -0.883818
B 0.953479 -1.912390 -1.272852
B -1.474910 -1.991678 2.647616
B 0.834819 -0.519120 -0.875599
B -1.375736 2.772896 -1.372150
B -0.366536 -1.479928 2.283376
B -1.296614 -0.395248 -2.314040
B -1.944319 0.197471 -2.460207
B 1.092713 1.755406 1.844434
B 0.618725 -1.467288 -0.560087
B 1.330338 0.964601 -1.523248
B 2.503930 2.505844 0.974820
B -1.399306 0.001249 2.508108
B -1.582898 -1.191883 0.435101
B -0.890662 0.694885 0.096364
B 0.869265 -0.553720 0.075488
B 0.582779 -0.600488 1.094605
B 2.201766 -0.443060 -0.859739
B 2.061784 -1.678236 1.764356
B 1.346985 -1.181963 1.925384
B -1.423686 -2.639164 -0.449425
B 2.271645 -1.786933 -0.231581
B 1.256227 1.946170 -0.276341
B 0.045854 1.545223 -0.862923
B -0.150338 1.177612 1.095907
B 1.261151 -1.654823 1.210207
B -0.185393 -2.676414 -1.945358
B 2.452650 0.776367 0.120544
B -1.428083 0.090876 0.356495
B -0.439062 -0.093775 -0.833181
B 1.642102 -0.825249 -0.227655
B -2.104231 0.442195 -0.178139
B 0.283915 -2.313394 -0.706689
B 0.561412 1.050053 0.325029
B -1.206277 1.158057 -0.855642
B 1.891920 2.524284 -1.352443
B 2.665210 -1.155923 -2.620890
B 1.298568 -0.357394 2.146385
B -1.373129 -1.689309 1.173876
B 0.812309 -2.539556 2.559275
B 1.256387 -1.014514 -1.508568
B -1.057963 -0.701909 0.922791
B 2.348766 1.069264 -1.430870
B -1.151409 -2.344960 0.467479
B -1.788331 -2.659708 2.020252
B 2.469235 -1.470250 0.599835
B -2.084929 -1.460212 -1.160764
B 0.483041 -0.364142 2.487631
B 1.311087 -2.243742 1.904359
B 0.527538 -0.457832 -1.796163
