1000
step:816750 columns:species,position,velocity dt:0.015 cell:10.0,10.0,10.0 model:grigera_cavagna_giardina_parisi
A 0.018617 2.262885 -4.903465 0.079748 0.419168 -0.496448
A 2.973456 -0.026168 -2.764880 -0.821725 0.630792 -0.072195
A 0.992711 -4.302845 1.277346 0.050001 0.647226 -0.018154
A 3.390995 -2.585847 0.888890 0.214311 1.290944 -0.043673
A -3.398090 -3.087891 -4.399542 1.022404 -0.254158 0.327903
A 4.813681 -3.834026 3.003904 -0.014764 0.376322 -0.246432
A 1.974614 0.196486 2.743834 0.477719 -0.030866 0.993663
A -4.964378 2.150234 4.811995 -0.269641 -0.544547 0.539285
A -1.369660 4.218411 1.474585 0.249646 0.089443 0.943092
A 3.387527 2.019161 4.716880 -0.097864 0.126018 0.645047
A 4.073283 4.728754 -0.131999 0.352515 -0.240314 0.032551
A 1.394833 3.713878 3.387610 0.676834 0.128729 -0.103910
A -2.911890 -0.978102 -0.345883 0.986017 -0.525607 -0.140126
A 2.734203 -3.997878 -0.367211 0.300606 -0.176149 0.079113
A -1.392280 0.881592 0.836206 -0.772025 -0.409455 -0.296066
A -4.402435 0.577159 1.185580 0.240502 0.210139 0.453932
A -1.740732 -4.382796 3.756761 0.126808 -1.112833 0.839059
A 2.594230 -2.784232 1.544360 0.044674 -0.334978 1.247452
A 0.413088 -1.415490 -1.338413 -0.003417 -0.073736 -0.213271
A 2.095336 4.304062 -3.862183 -0.769785 0.162275 0.394614
A 1.909638 -4.133189 4.608630 0.318957 0.279666 -0.041205
A -0.741892 -1.351958 -4.339140 -1.138320 -0.128334 -0.352473
A -0.963641 3.579671 2.171483 -0.254553 0.339264 0.331504
A 0.236296 -3.422069 3.459028 -0.041095 -0.103108 0.326635
A -4.225811 -4.996058 -2.208507 0.264710 -0.381248 -0.252261
A 4.643204 3.775978 4.886393 -0.583178 0.467238 -0.835692
A 0.001231 -3.951375 -2.214904 0.441196 0.106054 0.323208
A -2.796009 1.895240 1.302870 -0.271737 0.276731 0.056818
A 2.162539 4.442891 -2.273212 -0.513341 -0.276713 0.088461
A -3.814678 -3.495850 -3.336647 0.049490 0.197800 -0.302346
A 4.676854 -1.098541 4.352733 0.920771 0.145042 -1.197011
A -4.001952 0.104703 4.419192 0.393752 -0.147121 0.523066
A 3.921390 2.063756 -1.107206 -0.135861 -0.049430 1.074762
A 2.559700 1.910941 0.626382 0.393193 -1.048362 0.576029
A -2.960021 -3.565958 0.134349 0.391637 0.561667 -0.471486
A 1.875814 -4.449721 -0.226924 -0.352541 0.561231 0.451718
A 3.737486 1.307010 -3.849258 -0.753706 -0.487562 0.713506
A 2.246446 -0.041058 -2.039926 0.092953 0.208767 -0.220252
A 4.481339 2.504830 -0.363253 -0.708037 -1.088538 -0.336716
A -0.596792 -3.388551 0.971124 0.137332 -0.701649 0.369921
A 2.031209 0.498113 1.789674 0.225944 -0.235680 -0.802207
A 2.789976 3.809819 2.756294 -0.473240 -0.099832 0.301400
A 4.970082 -4.071312 -2.134206 0.104681 -0.497308 -0.021194
A -2.256078 2.710884 3.149503 -0.253315 -0.078833 0.444993
A 3.695572 1.243159 -4.851999 -0.566990 0.620648 0.052043
A -3.668179 3.725231 2.650345 0.695760 -0.787746 -0.805338
A -1.335798 -3.350664 0.078932 0.326192 -0.412335 -0.042619
A -4.194657 4.049366 1.105351 -0.488184 -0.619031 0.026241
A -2.351567 0.794132 0.193047 -0.312514 -0.295525 0.408091
A 2.585468 -4.389002 0.495367 -0.910005 -0.291389 0.154195
A 3.273609 3.469289 1.092757 -0.564993 -0.405645 -0.489887
A 4.615911 -0.902788 -4.695795 -0.364898 0.008976 0.245706
A -1.738024 -4.954134 0.978114 0.100745 -0.027774 0.082998
A 2.810288 -4.856195 4.751663 0.425658 0.355003 0.720189
A -2.770241 -1.039366 2.505661 -0.150575 -0.614476 -0.591025
A 4.251260 4.125112 -2.794869 0.137434 0.193994 -0.131523
A 3.942955 4.223038 4.474299 0.103321 0.327422 -0.245244
A -4.753551 0.070738 3.556920 0.086658 0.239949 -0.458074
A -2.385694 1.021948 1.115747 -0.206712 0.593581 0.084940
A -3.868358 1.584297 1.320403 -0.498867 -0.057147 0.879486
A -0.926204 2.460303 4.501854 -0.205156 -0.261574 -0.079166
A 0.679919 -3.296026 -2.512201 -0.544389 0.228653 -0.456963
A 3.032934 2.773571 -4.731126 0.697483 0.225190 -0.119558
A 0.385912 2.335512 -1.083849 0.675513 0.456320 -0.711985
A -0.571328 -3.192449 -1.888348 -0.728136 -0.208986 -0.621730
A -0.975678 2.366111 -4.419605 0.096544 0.271412 -0.171156
A 1.363267 -2.579947 -3.169551 -0.450649 -0.765327 0.435936
A 1.734355 -0.541850 -4.803504 0.389658 0.103896 0.249676
A -0.175216 2.948201 -4.131800 0.024056 -1.346155 0.071765
A 1.336997 -1.412611 0.704389 0.299943 1.145839 0.138711
A -4.935145 -2.545294 -4.406831 0.137291 0.932707 -0.442041
A 0.551800 1.514583 3.221853 0.159059 -0.108722 -0.479478
A -2.407718 -4.212771 3.088889 0.737666 0.244010 -0.660924
A -3.890690 0.601893 -3.941497 -0.240508 -1.100454 -0.324529
A -1.686500 1.968705 2.651615 -0.618454 0.047599 -0.317676
A 2.446458 1.177476 3.962300 -0.390560 0.330642 -0.141321
A -2.847996 0.323894 -3.884968 -0.021218 0.448792 0.461491
A -1.268644 4.499793 3.892227 0.691885 0.279137 0.106376
A 4.607057 1.245386 -3.481570 0.264032 -0.585135 0.096640
A 0.837914 -1.429684 -3.574631 -0.346630 -0.181293 0.550866
A -0.611134 0.825502 0.052186 0.145645 -0.145110 -0.642512
A 1.987283 2.918448 2.778983 -0.349123 0.647494 -0.590601
A -1.267501 -0.722436 -2.464612 -0.146437 -0.047869 -0.077654
A 2.447649 4.840919 -3.132068 -0.590509 0.082800 0.614514
A 4.955825 -2.042122 0.430512 1.113831 -0.986512 -0.345767
A -4.695130 -3.949189 0.153998 -0.398223 -0.184197 -0.098010
A 1.954274 2.717481 -3.286534 0.368153 1.101548 -0.939583
A -3.749750 0.463463 1.975437 -0.016106 -0.682757 -1.206496
A 4.323163 1.834219 -4.421250 -0.369596 -0.341225 -0.144455
A 3.342309 -4.036589 -2.308215 0.025068 -0.659515 -0.067127
A -0.951935 -0.733356 1.926660 0.205691 -0.156849 0.887063
A 1.020341 3.051162 3.004657 0.435834 0.293632 0.371461
A 0.203351 3.712041 0.183834 0.205081 -0.734748 -0.160995
A 1.143924 -3.499741 1.841492 0.000224 -0.114224 -1.083505
A 0.443870 0.659889 2.802543 -0.732933 0.050490 -0.319180
A 2.084616 -3.614539 -3.774395 0.063969 0.366845 -0.919523
A -3.986601 3.347039 -4.519578 -0.652170 0.081351 -0.197398
A 1.390859 -4.952481 -1.891974 0.871488 -1.076261 -0.299919
A 4.197732 -3.152189 -0.712198 0.315943 -0.337853 -0.733932
A -1.739550 -1.457467 0.998646 -0.387126 -0.245701 1.014155
A -4.017573 0.645635 -2.564555 -0.353551 0.812664 0.370267
A 0.175553 3.107397 -3.337935 0.253681 0.524706 -0.621122
A 4.621238 -2.803036 3.447290 0.120410 -0.822866 -0.185078
A -3.009742 3.387635 3.303973 0.524437 -0.844241 0.246371
A -1.525396 4.911114 -0.040328 0.446639 -0.411733 0.734724
A 3.713893 -2.524435 3.562507 0.602506 0.273505 -0.446017
A 2.084564 4.494394 3.274568 -0.382474 0.777054 0.722789
A -1.432448 3.913614 -2.943047 -0.237584 -0.289987 -0.331815
A -3.658021 0.020398 -0.681352 0.150383 -0.409242 0.404817
A 4.088417 1.120860 -0.655050 0.595644 -0.589000 0.911883
A 3.036166 1.249744 3.125592 -0.546881 0.489655 -0.100981
A -3.187729 0.456192 3.910577 0.121528 -0.411651 0.480294
A 3.266016 1.930288 3.731406 -0.615337 0.425310 0.465738
A -4.073148 -3.971824 -2.467005 0.769346 -0.320602 -0.651080
A -4.722637 -1.828892 4.910651 0.380143 -0.071709 -0.301501
A -2.974106 -3.821904 -2.740794 -0.120262 -0.429169 0.119191
A -0.474825 -2.680139 3.424376 1.194216 -0.341151 0.892570
A 1.984912 -4.585754 -2.536048 -1.254552 -0.322984 0.417795
A -2.229571 -3.092183 0.579736 -0.220116 0.277067 -0.603129
A -1.839040 1.242162 -1.829406 -0.203237 0.352348 -0.687544
A 0.646615 4.422610 -2.271608 0.043255 -0.015299 -1.278412
A -4.296227 1.344568 4.723350 -0.398408 0.366782 -0.146736
A -0.911129 -4.132417 -2.689993 0.599871 -0.166321 0.116493
A -2.515271 -1.944432 2.959991 0.165164 0.074440 -0.303436
A 1.235113 2.442671 4.871531 -0.470451 -0.385199 0.350980
A 1.963325 -3.169822 4.306432 0.489147 0.572676 -0.677949
A -1.035444 -1.428963 4.753957 0.177717 0.047587 0.493367
A -1.982602 -4.507944 -2.559201 -0.242327 0.535252 0.321219
A -1.550977 -4.808398 -1.264400 0.246378 0.467963 -0.525608
A -2.694905 -3.801693 -0.688431 0.356762 -0.768798 -0.248708
A -3.797821 2.125290 0.501005 -0.399441 0.008612 0.005585
A -4.507477 3.948703 3.453627 -0.104372 0.136708 -0.115173
A -0.612095 -4.670352 -1.742893 1.210370 0.668485 0.780518
A -0.598832 1.715834 0.318060 -0.413237 0.674842 -0.320024
A 2.960512 2.712615 4.113977 -0.723449 -0.898951 0.966705
A 3.154553 1.525979 1.856131 0.025914 -0.083969 -0.315196
A -2.335635 2.988459 -1.447955 -0.419342 -0.056092 0.033740
A 4.559582 -1.200963 1.129400 -0.609412 -0.269141 0.291878
A 3.372611 3.447140 4.557565 -0.430659 -0.134171 -0.249214
A 2.994396 2.843908 -3.682608 -0.522918 0.627234 0.391367
A 0.509676 -2.307745 -0.873733 -0.773464 -0.535011 0.498528
A -1.349290 -4.186603 2.839990 0.409190 -0.181242 -0.513185
A 1.536396 1.753634 -3.508256 -0.137532 0.734917 0.691667
A 4.772763 2.443308 -1.520085 1.388202 -0.329017 -0.544161
A -0.882105 -4.888918 3.260091 0.154233 -0.013135 0.737259
A 2.421702 2.612076 -0.485207 0.150095 -0.185896 0.230326
A 2.225444 -1.379753 -4.693490 -0.387798 -0.147614 -0.024792
A -3.955780 -3.355694 1.660768 0.961332 -0.274514 -0.385688
A -3.476865 2.738399 2.608356 -0.193154 -0.013497 0.789858
A 2.493625 3.559114 -2.000548 -0.501444 0.815337 -0.557474
A 4.930564 2.502934 3.929884 0.058403 -0.041959 0.311288
A -3.255432 2.378472 3.418118 0.337415 0.015000 -0.171833
A -3.041769 -1.491180 -1.692368 -0.159617 0.257239 0.098817
A -2.991533 2.627496 0.427979 0.659610 -0.407548 -0.317954
A 0.062350 4.946328 -0.990032 -0.157826 -0.043802 -0.437150
A -2.841578 3.630029 -1.982077 0.285483 0.354418 -0.159966
A -2.573834 1.099777 -2.246129 0.268635 0.174223 -0.628721
A -1.350822 2.658727 -1.635002 -0.043633 0.009385 0.275852
A -1.727477 -3.940255 -0.738535 0.520529 -0.785254 0.313799
A 4.015458 1.483424 3.465862 -0.001629 0.997697 -0.156373
A -1.762515 -1.352035 -3.167474 -0.059380 -0.660393 0.345296
A -4.672127 -4.768553 -4.049081 -0.202539 -0.457262 -0.618080
A -0.896209 -0.464085 -4.092883 0.159974 -0.579994 0.120927
A -4.624204 3.047641 4.629726 0.227603 -0.255380 -0.077773
A -4.294093 -2.518966 1.987094 0.231540 0.446409 -0.098543
A -0.321561 2.357951 -3.124410 -0.531583 -0.518492 0.237919
A -0.611089 1.596935 -4.867736 -0.257210 0.000323 -0.185323
A 1.251047 2.081634 2.978464 0.131483 1.056824 -0.106241
A 3.818812 -4.827113 1.447439 0.082029 0.210638 0.149183
A 2.320463 -2.503096 0.631787 0.076598 0.023285 0.749780
A 0.469489 4.375209 -3.272430 -0.313514 -0.168843 0.797566
A 2.774589 0.929451 0.099951 -0.136386 -0.074939 -0.411829
A 4.771099 3.212848 -0.878563 0.748076 0.367589 0.821538
A -0.605294 2.226661 -1.174205 0.481660 -0.253291 0.190746
A 4.218637 1.921462 4.280703 -0.789636 -0.077414 0.232971
A 2.140300 2.083173 -1.509876 0.332350 -0.440983 0.470882
A 0.989988 -4.249129 -4.550357 0.478814 0.226112 -0.303711
A -3.728013 -0.250314 3.456401 0.133686 -0.256247 -0.868437
A 3.198541 -4.174484 3.594485 -0.313763 -0.228265 1.405275
A -4.190628 2.456454 -3.743701 -0.012504 -1.380862 0.059134
A -0.346780 4.424282 4.092444 1.100056 0.341070 0.016429
A -2.273999 -2.948382 4.707946 -0.335443 0.799330 0.029677
A 1.781559 -3.452340 2.640897 0.574979 -0.307660 0.629652
A 1.702661 3.938308 -4.749427 -0.359600 0.445661 -0.413286
A 3.573309 3.610563 3.580011 0.654492 0.057062 -0.043791
A -2.636278 0.299762 4.811415 0.363270 -0.089816 -0.002067
A 3.139006 4.222187 -2.655123 0.138821 0.114705 0.021657
A -4.544614 -4.045759 2.360922 -0.965579 -0.139491 0.326735
A -4.364114 -4.234209 3.388345 -0.544440 -0.458150 0.222879
A -2.245855 -1.577556 0.066499 -0.401756 -0.354235 0.274024
A -1.502070 3.095687 -0.901186 0.737182 -0.104435 0.264740
A -3.872223 1.734485 -1.298275 -0.556574 -0.274844 0.588104
A 0.494198 2.515985 3.460165 0.183288 -0.537622 -0.130844
A -1.443541 0.397548 -0.070804 0.095054 0.061584 -0.463585
A 0.770322 -1.616176 2.416449 -1.220858 0.155696 -0.254318
A -4.783781 -3.008618 0.771401 -0.002182 -0.437505 -0.237443
A 4.111052 -2.928972 -4.176300 -0.245436 -0.823424 -0.024023
A 1.891999 -3.904407 1.132651 1.107259 0.101206 0.447495
A 4.556940 -0.769124 -0.808269 -0.453207 0.402356 -1.015169
A 1.642905 3.656050 2.347386 -0.246353 0.345579 0.731573
A -3.348268 0.744424 0.939005 -0.115040 -0.033027 0.000836
A -0.447970 1.068254 1.090373 -0.731882 -0.145442 1.219337
A -0.460776 0.221365 2.860559 0.191774 -0.269344 0.117160
A 3.106962 -0.676796 -2.080508 -0.257756 -0.226750 -0.138639
A 0.701642 -4.684677 -3.763335 -0.332849 -0.402612 -0.481047
A -3.415103 -0.726084 -2.532568 0.641006 0.282535 0.405161
A -1.785674 3.007679 4.097471 -0.242172 0.659449 0.013035
A -3.620612 -3.056089 -2.484962 -0.030179 -0.456804 -0.219957
A 3.310719 0.468886 -4.335257 0.205294 -0.027263 0.154001
A 1.112967 0.774320 -2.011886 -0.836720 0.503385 0.170993
A 3.074279 -3.501042 -1.082851 0.447080 -0.853675 0.280135
A -4.604626 3.511245 -0.100988 0.291832 -0.005358 0.466737
A -0.324031 4.935867 -3.767318 0.580269 0.332534 0.344258
A 2.336944 3.393599 -4.185404 1.119609 0.901329 0.290257
A 1.671644 4.121903 -1.554744 -0.256479 0.157877 -0.174626
A 4.387187 -3.410255 -3.431270 0.157330 0.121958 0.397659
A -0.879915 -1.993736 -2.498756 -0.736646 -0.655715 -0.436715
A 2.627643 1.825579 -2.201766 0.321304 -0.132271 -0.654370
A -0.988753 2.068104 1.077177 -0.454080 0.918370 0.702527
A 0.745320 3.888335 2.626748 -0.461402 -0.673960 0.394203
A -0.325166 -2.587232 2.419457 0.571508 -0.198928 -0.166184
A -2.707162 -0.457076 -4.432315 0.030721 0.298152 -0.818085
A -4.767579 0.558789 -3.505836 -0.063675 0.078748 -0.274751
A 1.364423 -0.227161 1.038600 0.308992 -0.152893 0.087562
A -4.601226 -1.571146 3.800824 0.107895 0.407144 -0.181919
A 2.766350 -2.025795 -3.430208 -0.649081 0.514756 0.163432
A -2.936962 3.657913 -0.013606 -0.922718 -0.726631 -0.087696
A 4.846237 3.578009 -3.375006 0.742756 -0.162885 0.720079
A 1.751285 -4.835912 0.986588 -0.544920 0.489073 -0.647268
A -4.847250 3.294936 -1.717944 0.083369 -0.228302 -0.446857
A -1.003130 3.579865 4.016002 -0.510645 0.277055 0.220979
A 4.165654 -4.264948 -1.741753 -0.541300 -0.197228 -0.379160
A -4.513379 2.482322 1.118519 -0.154060 0.480741 -0.004809
A 1.787543 -1.794974 -3.765055 -0.434262 -0.317768 -0.060061
A -3.532251 1.680212 2.916837 -0.748761 -0.062421 -0.783756
A -0.398546 -0.715313 3.984519 0.208691 0.492202 -0.804372
A -0.654955 4.974890 1.215258 0.270459 -0.213666 -0.415596
A 1.123092 -2.025629 -1.658643 0.035217 -1.119021 0.155396
A 0.152261 -2.029816 3.105399 0.271087 -0.273328 -0.282652
A -4.052187 -1.931810 -0.126012 -0.122146 0.128626 0.134255
A 2.646348 -3.013309 4.921944 -0.421718 0.052925 -0.915904
A 3.885560 -0.821391 4.807168 -0.192225 -0.610127 -0.148381
A 1.854355 -0.877845 -3.864295 -0.258331 -0.170208 0.769516
A -3.784255 -2.455242 -1.691078 -0.271122 0.487547 -0.222878
A 4.426809 -3.678413 0.289182 0.123314 0.110631 0.206331
A 1.583327 2.746095 3.719229 -0.491708 -0.878008 0.314751
A 4.033885 2.908372 1.232242 -0.206290 0.175945 0.493984
A -1.897206 -0.486030 3.223515 -0.436233 0.569638 0.456943
A 0.432319 -4.675533 -1.796657 -0.630772 -0.737184 0.334375
A -3.512855 -0.067191 -3.291413 0.392294 -0.242069 -0.048603
A -4.968816 -3.269308 1.776085 -0.491694 0.229933 0.142625
A 3.799746 -0.461899 -4.224888 0.478022 0.176326 -0.110931
A -3.794652 -3.332213 3.581496 0.777906 -0.319776 -0.526525
A 3.998890 -4.466528 3.071150 1.056266 -1.255042 0.153226
A 0.376060 -1.813855 0.679157 0.135640 -0.166002 -0.135718
A -2.835542 -0.490871 3.291990 0.365668 0.030850 0.011664
A 3.356647 1.536109 0.861358 0.623411 -0.256401 -0.158578
A 3.488936 3.709252 -1.809533 -0.012986 0.129128 0.039496
A 2.750334 1.059126 -4.957974 -0.161988 -0.299889 0.150699
A -2.996840 3.626129 -4.126502 0.109133 -0.326151 -0.059146
A -4.658469 -3.221979 -2.752187 -0.015471 0.245779 0.444666
A 3.741225 0.826652 0.231515 -0.283173 -0.441235 0.893186
A 2.748482 -4.885841 -3.991476 0.273586 -0.279751 -0.193719
A -3.126728 -2.250734 -3.859857 -1.406266 -0.986987 0.590614
A -2.977527 4.596690 -0.668482 -0.299010 -0.822288 0.666204
A 1.519553 4.204605 0.576110 -0.115023 0.512740 -0.241630
A -0.796120 3.398510 -2.450562 -0.572657 -0.269280 0.113305
A -1.786852 4.020319 4.441773 -0.592676 -0.820255 -0.197659
A -4.627221 -3.246592 -3.805230 -0.055845 -0.384845 1.079900
A -3.948398 -0.666602 0.053904 -0.620857 -0.934647 0.405549
A -3.850520 -2.993078 0.222679 -0.225875 -0.078724 -0.228329
A -3.867950 -2.851311 -0.737303 1.166097 -0.450168 -0.863919
A 3.697262 -2.590449 -3.132184 0.191260 -0.038378 0.179580
A 4.897637 -4.750709 -0.420908 -0.211387 -0.259305 0.442880
A 3.888009 0.000194 -2.425079 0.201895 -0.419160 -0.426495
A -1.847226 2.099885 1.686239 0.201819 0.608698 -0.820824
A 0.636748 3.705906 1.023238 0.227678 0.050098 -0.178434
A -2.009089 -4.869972 -4.132308 0.027675 -0.872348 0.293355
A 2.147918 1.261720 2.480989 -0.384378 0.065901 0.022239
A 0.111381 0.867876 -4.817366 -0.074141 -0.434764 -0.348219
A -2.125923 0.065196 0.728869 0.238110 0.092054 -0.528334
A -2.080681 -2.897096 -0.519208 0.065359 0.501946 0.490028
A 1.643851 -2.981205 1.280069 -0.884272 -0.186920 -0.430322
A -0.017893 -1.030527 3.110285 0.355899 0.018771 0.387447
A 1.206857 0.219362 3.260993 -0.054229 -0.345860 0.253663
A 2.577550 0.430339 3.428648 0.087923 -0.778950 -1.102339
A 2.476065 3.438729 1.900447 0.172443 -0.572032 -0.534872
A 1.743647 -2.563002 2.228262 -0.155660 0.137755 0.853861
A 1.086197 -4.258516 0.358124 -0.062144 -0.386734 -0.386497
A 1.465890 -1.096698 -2.994939 0.187856 -1.257628 0.147653
A -2.033513 -3.971677 0.105902 0.148066 -0.560270 0.303869
A -3.415794 -1.432464 0.405724 -0.381597 0.391891 -0.394349
A -0.174491 2.822333 0.564606 -0.107943 -0.122346 -0.124541
A -1.726992 4.206666 2.336865 -0.213290 -0.412198 -0.916638
A 4.927605 -4.795292 -1.397058 0.347889 0.104477 0.328274
A -1.714071 -3.768882 4.488437 0.200214 0.162476 0.295678
A -0.287226 -0.942328 -0.828782 -0.389555 -1.214186 -0.289318
A -2.447158 1.678091 -0.347268 0.145277 0.212504 -0.413570
A 1.160056 2.449173 -1.758652 0.965797 -0.251570 -0.293070
A 3.800871 2.437347 0.479636 -0.388895 -0.867623 -0.207677
A -0.761671 1.516242 -0.668304 -0.302607 -0.040280 0.205766
A -4.304249 2.078910 3.300970 -0.298149 0.074016 0.195884
A -4.508721 4.332454 -1.612475 0.234761 -0.897413 -0.230955
A -0.843478 -1.073568 -3.273452 1.058805 0.199984 -0.865755
A 1.174703 1.473011 -0.313985 -0.020894 -0.350953 -0.458447
A 3.769319 2.479023 -4.174260 -0.670271 -0.754045 0.640498
A 0.266723 -4.461288 -0.034804 0.400483 -1.027416 0.408248
A 3.697071 0.335008 -3.446733 -0.042027 -0.200874 -0.625571
A 4.697274 -3.741170 -4.303863 -0.850898 0.637153 -0.660972
A -3.366813 -4.954036 4.495118 0.021275 -0.214553 -0.059182
A -4.560546 0.478029 -4.699493 -0.123514 0.495070 0.162180
A -3.111376 0.269162 -2.360082 -0.447410 -1.047134 1.231186
A 1.004264 -2.336319 -3.942095 0.689066 0.050148 -0.673186
A -1.904123 -4.135118 -3.479038 -0.006403 0.191238 0.409353
A 1.552777 -4.427872 1.985816 0.523495 0.160195 -0.083590
A -1.845837 0.407382 1.617159 0.236744 -0.455531 0.084768
A -2.036303 2.195087 -2.075933 -0.657545 1.002801 0.953501
A -0.899203 -3.253187 2.752201 -0.734357 -0.454533 -0.391671
A 4.664314 2.258160 0.764137 -0.029922 -0.167584 0.795159
A -2.152843 3.780061 1.302598 0.618653 0.298593 0.538820
A 3.838616 -3.403520 -1.554827 -0.033756 -1.064367 0.642164
A 0.335740 -2.648248 0.083233 0.071942 0.292102 -0.174373
A 1.507368 -2.305419 4.007048 -0.225755 0.155301 0.603176
A -1.122347 -1.116963 -1.513768 -0.711512 -0.272203 0.347168
A -4.518980 1.529937 0.724658 -0.259581 -0.642725 -0.038836
A -1.542121 -1.122132 3.944932 -0.435831 0.400603 -0.147271
A -0.342719 2.480804 -0.374886 0.563573 0.697341 0.442397
A -2.472118 4.241980 -3.570164 -1.214809 -0.270820 -0.734305
A -1.081059 -3.338281 -0.996356 0.475551 -0.603574 -0.865234
A 1.345213 -3.908683 -1.941267 0.583228 0.272674 0.401673
A 3.184341 2.417708 1.290960 0.699921 0.266276 -0.255097
A 1.779130 1.183282 0.438325 0.567160 0.598535 0.250809
A -4.233443 1.522747 -0.203942 -0.040561 -0.341758 -0.494361
A -4.508923 -3.190831 2.789264 -0.189200 -0.824988 -0.840192
A -1.480625 -2.966185 -4.791411 0.498313 1.360874 -0.626590
A 0.557095 3.230555 -0.527284 -0.138677 -0.216435 -0.150203
A -2.658392 3.554901 4.117542 0.589044 1.001014 0.697087
A 3.591578 -4.831550 4.255262 -0.944031 0.458645 1.287206
A 3.789039 -0.875575 1.688706 0.352063 0.395531 0.866911
A -0.163880 -0.278105 -4.787805 0.374422 -0.261018 -0.340489
A 3.780350 3.850920 2.681166 0.392368 0.895719 0.122711
A 3.688159 -2.031873 2.670410 -0.084276 0.987308 0.243265
A 2.881016 -3.899107 4.520701 -0.237472 0.404220 -0.302524
A 3.352704 -4.413920 2.261470 0.162653 -0.191901 -0.038104
A -2.228884 -4.723264 -0.582270 -0.086797 0.008257 0.925048
A -3.235585 -1.205354 -4.838629 0.654657 1.176178 0.196461
A -4.244610 0.781223 -0.889551 0.238935 0.861433 0.612837
A 2.821558 -4.865479 -2.331281 0.896808 0.788148 0.049730
A 0.029616 -0.946263 -3.793042 -0.356619 0.670441 -0.201025
A 4.846870 4.508259 4.172857 0.001775 -0.766215 0.572358
A -4.260468 -4.749650 0.373543 -0.075535 0.235115 -0.744206
A -2.410125 1.019986 -1.020141 -0.727665 0.172878 -0.250962
A -1.559526 -2.029316 3.453395 -0.219460 -0.223576 -0.280449
A 1.191473 -3.278944 3.518214 -0.615060 0.858386 0.521379
A -4.764262 2.484880 0.167640 0.364608 0.229017 -0.175860
A 0.571952 -2.566958 3.750200 0.700589 -1.156888 0.900150
A 3.505403 -1.568694 -3.069778 -0.459433 0.783383 0.640531
A 4.007181 -3.292115 2.992506 0.028390 -0.673476 0.487003
A -3.987296 3.205248 0.590968 0.504260 0.486474 -0.673608
A 2.659531 -0.759259 -0.081937 -0.489305 0.133069 0.118753
A -3.167478 1.305706 2.128622 -0.092371 0.095890 0.301620
A -0.813800 0.546008 -4.577793 -0.507664 0.323910 -0.217608
A 2.772732 0.881483 1.143821 -0.375483 0.417035 -0.441749
A -4.133605 -4.417278 -1.496595 -0.444691 0.035285 0.326027
A 2.643524 -3.333488 0.795352 0.406562 0.071250 0.268464
A -3.141269 1.484074 0.315730 -0.225253 -0.381767 -0.390377
A -1.631006 -2.311187 0.097326 0.291116 -0.199509 -0.457101
A 4.122599 -0.910461 -2.370524 0.572251 1.058467 0.341939
A -3.376615 -2.610578 1.807185 0.226765 -0.213446 -0.229450
A -4.412480 -2.055720 -1.069909 -0.797938 -0.211385 0.092871
A -4.206616 2.192374 4.202376 0.221691 0.400709 1.402879
A 0.815006 4.430210 -1.209309 0.146428 -0.330913 0.896983
A -1.878944 -1.901122 4.462226 -0.052575 0.333729 0.561295
A -1.056607 -2.502983 -0.763898 0.684211 -1.023221 0.680530
A -3.597473 3.031810 -0.252883 0.635618 0.991813 0.508162
A 1.806319 3.076032 -1.525363 -0.138182 -0.747169 -0.028492
A -1.480142 4.097816 0.565256 0.543165 -0.377944 0.269250
A -3.765949 -1.166798 3.384546 0.177139 -0.016762 0.820268
A 4.478515 1.640622 0.025285 0.013354 -0.636438 -0.133434
A 2.885728 -0.305793 2.641241 -0.287095 0.243451 -0.661462
A 0.144441 -4.019070 -4.272370 -0.230239 -0.107057 0.318871
A -3.663463 -0.931123 -4.024329 -0.178885 -0.493045 0.498045
A -1.165600 -0.376407 -0.830692 0.064752 -0.724298 0.581949
A 2.784136 -1.829270 1.092468 -0.296011 0.588953 -0.334873
A 3.142188 4.738230 0.495604 -0.423682 -0.495404 0.212320
A 4.278229 -2.680344 0.236176 -0.438370 0.106520 0.734413
A 3.967366 2.976032 -1.424183 -0.462702 -0.215284 0.177126
A 3.496634 -4.425463 0.276775 -0.488001 0.379063 -0.339721
A 0.779040 2.795537 0.989348 0.243052 0.422619 -0.288467
A 3.208905 -1.433298 4.998300 -0.011663 -0.566485 -0.065291
A 3.337103 -4.421793 -1.381566 -0.241099 0.060506 -0.115566
A -0.949105 -4.119939 -3.779068 -0.127320 0.249622 0.391368
A 4.342778 0.539395 3.875463 -0.275959 0.264401 0.051405
A 4.111342 -4.088618 -2.847986 1.218724 0.090944 0.978915
A -0.656714 -2.616914 0.092894 -0.044845 0.376860 -0.854128
A 2.943323 -3.085187 3.970063 0.222743 0.194073 0.506050
A -4.435062 -0.770456 4.042133 0.113143 0.496231 -0.193702
A 1.196557 -2.149809 3.110129 -0.213773 -0.493415 0.031064
A -0.509927 3.965959 -3.270111 0.070634 0.205212 -0.248364
A -4.112596 2.192843 2.205161 -0.026650 0.548431 -0.272479
A 3.650679 0.829783 1.399762 -0.110978 0.443312 -0.390514
A 3.729685 -2.157129 -3.912087 1.024790 -0.652432 -0.197283
A 3.019955 0.644209 2.215248 0.202783 -0.407333 -0.005841
A -2.587768 1.128132 -4.510076 0.189461 0.030757 0.271813
A 1.704503 -3.723064 -2.780853 -1.204595 0.020570 0.086902
A 3.067958 2.777936 3.137659 0.142005 0.387245 -0.021611
A -1.600369 0.411339 4.726865 0.215601 0.278929 -0.258251
A 4.972992 0.787854 -0.311537 -0.111498 0.655302 0.350457
A 4.426695 -1.071614 0.207845 0.192952 0.483937 -0.522382
A -2.111460 1.043483 -3.625433 -0.344640 0.268277 0.082202
A -0.175638 -2.852041 -0.852520 1.240356 -0.249772 -0.066199
A -4.480342 4.993469 1.326844 0.684750 -0.269127 -0.373941
A 3.074413 -3.729116 2.782751 -0.081708 0.075968 -0.284340
A -3.266251 -1.862627 -0.739919 0.227606 -0.146679 -0.438578
A -2.194915 -2.215421 -3.669313 0.231390 -0.449476 -0.172056
A 0.702578 3.252830 1.928417 0.362943 -0.030153 0.164790
A -2.653809 -2.011325 0.846297 0.122126 -0.443966 -0.506810
A -2.601915 -4.289003 4.327394 0.189108 -0.643824 -0.186065
A 1.117272 3.459207 4.290207 -0.448550 0.931854 -0.087747
A -2.422583 -2.515262 3.848637 0.454200 0.247358 0.474310
A 0.012806 4.097416 -0.665381 0.482326 0.428637 0.263455
A -4.968669 -4.850010 2.140441 -0.270778 0.240831 -0.153722
A 0.288496 -0.056522 3.555027 -0.334636 0.279535 0.761759
A -0.448412 2.885051 3.838993 0.059254 -1.020831 -0.597904
A 3.123424 -2.749039 2.899641 -0.693916 0.135514 -0.704329
A -2.651896 -1.436692 -4.035014 -0.416347 -0.346284 0.061919
A -3.281950 0.970838 -0.503929 -0.187827 -0.571006 -0.133993
A -2.448756 -2.954561 -4.333243 -0.246103 0.739955 -1.120714
A 3.851826 0.094356 1.948056 -0.856595 -0.073903 0.672187
A 3.994917 1.148277 2.362956 -0.420650 -0.294539 0.023227
A 4.082119 4.944112 -1.089096 -0.207157 0.004976 0.607722
A -2.890881 -4.850017 2.395518 0.288548 0.732549 0.020484
A 0.238339 0.239193 -0.228235 -0.563357 -0.930020 0.161210
A 1.358227 0.698555 1.202002 0.035251 0.675727 -0.110838
A 1.613348 0.753804 -3.242292 -0.057038 -0.906411 -0.186414
A -3.485867 -2.108752 -2.530055 -0.548119 0.281102 -0.017763
A 4.503859 -4.607240 -3.750279 -0.424630 -0.363688 0.047996
A -0.878767 -0.617170 2.947131 0.030437 0.037715 0.140907
A 0.462332 0.988753 1.579650 -0.294702 0.743259 0.185726
A -2.861429 -3.766832 -4.969747 0.826976 -0.174373 -0.465533
A -1.126104 -4.729907 -4.417638 -0.440712 -0.299366 -0.270212
A 2.309960 2.663951 1.227769 -0.101862 -0.050631 -0.910748
A -0.617686 -0.305899 -1.711882 -1.234778 -0.738202 -0.291626
A 4.641392 3.972214 2.964270 0.155772 0.564714 -0.154235
A 0.168364 3.608801 -2.520764 -0.468241 -0.224872 1.095314
A -4.862583 3.952695 -2.421321 0.926376 0.176061 0.057835
A 1.032881 -3.478784 4.470977 0.232432 0.470109 -1.127851
A -0.247667 1.121202 3.438198 0.094610 0.102570 -0.969874
A -0.983233 4.455579 -0.864139 1.167215 0.962307 -0.779929
A -3.239637 -3.115090 1.024800 0.282741 0.258423 0.322014
A -1.869284 -1.012057 -4.021617 -0.263438 -0.672518 -0.253676
A 4.485609 -0.307779 2.647556 0.593841 0.558810 -0.782276
A -2.995263 -2.884012 -1.022172 -0.235685 0.356753 -1.284165
A 1.963071 -2.688767 -3.967560 0.125165 0.340794 -0.179523
A 1.749987 -1.483119 3.646129 -0.293461 0.088226 0.528054
A 3.612747 -3.238603 -4.820248 0.533664 0.565846 0.908522
A 3.599239 -0.686411 -3.226504 0.557019 -0.448312 0.057766
A 4.714244 4.623190 1.443111 0.144788 -0.308710 0.849972
A -2.897831 2.660329 -2.222042 0.190523 0.224049 0.132948
A -1.503941 0.773205 -0.953712 -0.336094 0.621769 -0.767272
A -1.543270 -0.332244 -3.349476 -0.789767 -0.345762 -0.110827
A 2.589300 -2.264269 2.366954 0.299575 0.718208 -0.121731
A 2.062845 2.799487 -2.340328 0.129130 -0.247035 -0.143407
A 2.164320 0.301225 0.711760 0.359880 -0.358357 0.136036
A 3.746109 4.858464 -2.060566 0.310041 0.003520 -0.367323
A -3.256516 -4.513412 -1.091584 -0.201017 -0.226749 0.238127
A 2.611050 2.395138 2.239001 0.080423 -1.221410 0.521887
A 1.145821 3.332149 0.247487 -0.569694 0.024723 0.465280
A -1.037528 2.250470 -2.497771 1.511871 -0.213046 -0.349128
A 2.180053 4.651764 0.141051 0.722061 0.447284 0.015632
A 2.213731 -3.803559 3.514506 -0.388335 0.653937 -0.019297
A 0.428556 -0.592684 4.377765 -0.400074 0.252255 0.041899
A -2.444245 2.799991 1.355050 -0.157380 -0.055941 0.028041
A -2.389003 -0.044478 2.562677 0.738915 -0.020607 -0.163151
A 1.991647 -0.060328 -3.276026 -0.248026 0.552023 -0.296595
A -1.733817 2.429760 -3.094975 -0.376519 -0.272224 0.646293
A 3.370177 -3.446230 -2.927510 0.139477 0.880751 0.196814
A 2.080943 3.336994 0.259875 0.232217 0.315903 0.354007
A 3.936187 2.616619 3.737513 0.032928 0.127757 -0.065324
A 0.076871 -2.060192 -4.056339 0.953366 0.017364 -0.802621
A -0.215329 2.998714 1.549061 -1.028531 -0.488161 -0.374170
A -2.204413 -3.307810 -1.458978 -0.820242 0.336345 -0.362537
A 0.692256 -0.745939 -4.544568 0.082777 -0.101567 -0.500083
A 4.079772 -1.867162 0.631909 0.379014 1.016771 -0.107447
A -4.864359 1.679203 1.665529 0.202297 0.037960 -0.309814
A 2.837389 -0.214097 -3.750050 -0.346354 -0.281720 -0.063736
A -4.760960 -1.310904 -0.395498 -0.882280 0.580566 0.400229
A 4.594785 -2.136116 4.185719 -0.291293 -0.210665 0.546065
A -0.799095 -1.802173 2.809266 -0.302635 -0.243049 -0.466462
A 0.508872 2.751990 4.333586 0.362268 -0.329737 -0.217505
A -0.963922 -3.048001 1.831913 -0.676075 -0.180492 -0.115312
A -0.165165 -1.766821 -3.208814 -0.299110 0.033621 0.052224
A 2.887825 2.881112 0.427014 0.140233 -0.606370 0.528049
A 0.321968 -3.948843 4.792577 0.111558 0.414178 -0.390857
A 1.067891 -1.072170 -2.096344 0.025538 -0.506141 0.191687
A -2.844063 -4.842103 -3.183947 0.458937 -0.326176 0.702379
A -1.571624 1.308365 -0.081558 0.089921 0.035104 0.068812
A -3.702291 -2.921631 2.686923 0.249837 0.294185 -0.434861
A 1.278969 -1.551639 -4.460300 -0.581149 -0.654008 -0.359422
A -4.364111 0.240795 2.729454 0.232469 -0.077611 -0.358345
B -3.490490 0.859472 -4.927495 0.833061 -0.190970 -0.025503
B -4.782784 -2.930148 -0.257943 -0.097340 -0.037063 0.000841
B 2.484973 -0.933308 -2.953213 0.278048 -0.834571 -0.238414
B -3.205411 -0.559181 4.381694 0.082273 -0.501779 0.493069
B 2.860644 -0.140911 1.674139 -0.075466 0.293237 0.558231
B -2.214389 0.294752 -1.742320 0.912982 -0.121438 -0.724830