150
step:0 columns:species,position dt:1 cell:5.0,5.0,5.0 model:kob_andersen
1 -0.955249 -2.118605 1.977438
1 -1.267566 1.820112 -1.233186
1 -0.136443 0.198976 -0.697011
1 -1.114032 0.545887 -0.983428
1 0.369513 2.451936 2.129668
1 0.907243 -0.963565 2.077108
1 -0.417299 1.887992 1.915905
1 1.416720 2.404011 0.688102
1 0.056187 1.982925 0.860730
1 0.511881 -2.315099 0.231498
1 2.015769 -1.735112 0.990098
1 -0.413328 -1.722664 -2.199278
1 1.224697 -0.382050 0.867733
1 1.448185 -2.000714 -0.344070
1 -2.134972 2.043654 -0.670738
1 -1.178160 -2.354497 -2.011802
1 -1.376658 1.843902 2.399401
1 -1.319645 1.323134 -0.348441
1 0.060221 -0.537729 2.426618
1 -2.106984 0.930687 -2.445360
1 -2.040910 1.493045 1.610124
1 2.210416 -0.035530 1.046469
1 -2.224366 -1.360066 2.026003
1 -2.340017 2.375593 1.173861
1 -0.812835 -1.066720 2.059892
1 -2.127037 1.317545 -1.566393
1 -2.329012 2.336117 -1.583492
1 -0.888719 1.024352 1.907139
1 2.234551 -1.876874 -1.135272
1 -1.553211 -2.216200 0.166537
1 -0.490021 -2.317647 -0.117803
1 0.519143 2.444032 -0.799096
1 -2.255748 -0.973007 1.048919
1 0.424239 -0.550257 0.135694
1 1.119272 -1.880352 1.453227
1 0.764549 1.641175 -1.451353
1 1.908766 1.456692 0.313456
1 2.396652 1.852166 2.381479
1 1.801288 -0.873071 1.567385
1 -0.328817 -2.069565 -1.144604
1 1.235980 1.139049 2.070800
1 -1.395522 0.978455 0.756699
1 -2.405792 -0.212343 2.303630
1 0.558600 1.347819 -0.491372
1 -1.760651 0.455736 1.640364
1 0.734939 0.175174 1.740776
1 -0.886780 -1.145433 1.096705
1 2.259047 1.243818 -0.681046
1 -0.549979 -0.767360 0.193758
1 1.818788 1.677298 -1.614930
1 2.308607 -2.509834 0.213787
1 -1.601155 -0.571063 1.677932
1 1.358028 0.940411 -1.044376
1 -0.059450 -1.076505 -1.409068
1 2.133397 0.599962 1.908407
1 2.121061 0.651909 -1.878174
1 1.317257 2.015598 -2.383987
1 -1.448223 -2.195936 -0.986198
1 1.426378 -0.197837 2.421475
1 -0.828764 -0.054307 2.089879
1 0.829585 -1.620774 -1.112041
1 -0.940193 -0.569493 -0.861877
1 0.127838 -0.527649 1.266060
1 -0.753253 0.211367 1.086556
1 1.431547 1.923582 -0.416134
1 -2.064079 -1.526352 -1.836641
1 1.960931 -1.097966 -2.232213
1 -1.943984 -1.236770 -0.911602
1 -1.612506 -0.634513 -2.226036
1 0.470224 -2.292018 -1.838535
1 1.346172 0.016459 -1.504005
1 -1.949151 -0.174591 -0.764827
1 0.822046 -0.814228 -1.887081
1 1.457436 -0.583150 -0.127325
1 -2.043610 1.669103 0.300927
1 -2.128822 0.669097 -0.144127
1 -0.581441 -2.177342 1.020424
1 2.491322 -0.523022 -1.626833
1 -1.351660 2.125704 1.301019
1 0.108156 -1.436473 0.776158
1 0.137996 -1.424953 -0.321328
1 -1.614521 -1.123712 0.210622
1 -1.152746 1.040655 -1.954501
1 1.167646 -1.790147 2.495675
1 0.855260 1.324541 0.463587
1 -2.007985 -2.364657 2.054541
1 1.950633 1.525519 1.449445
1 1.795068 -2.441973 1.789375
1 0.544729 0.333820 0.645166
1 -0.024544 -1.649845 1.877114
1 -0.306828 1.860485 -0.739797
1 -1.026506 0.297574 -0.013102
1 1.725769 -1.000816 -1.007858
1 1.995634 -2.210481 -2.201696
1 0.359749 1.537681 -2.456869
1 -0.314963 1.970329 -1.711956
1 2.032660 0.167983 -0.697751
1 1.725124 0.389940 0.225751
1 -0.949491 -1.507321 -0.487045
1 0.185986 -0.063304 -1.676676
1 -0.114703 0.596681 2.475309
1 -0.178123 0.904262 -1.428817
1 0.706609 -0.576686 -0.888917
1 -0.787156 -0.045227 -1.873467
1 -1.852253 0.231835 -1.703964
1 1.431434 0.768796 1.095960
1 -0.945751 1.893286 0.391731
1 2.511835 -0.472284 0.033165
1 0.853093 0.290075 -0.381873
1 -1.668030 -0.089084 0.762117
1 1.397354 -2.447679 -1.393080
1 0.157336 1.154164 1.377720
1 0.982197 0.807535 -1.980389
1 2.301916 -1.467100 -0.053658
1 -1.120594 -1.337129 -1.548581
1 0.984882 1.891355 1.424121
1 1.175571 -1.360617 0.420659
1 -1.593443 -1.861066 1.159905
1 -2.405110 0.886696 0.869229
1 -0.322210 0.963881 0.445331
2 -2.206763 -2.070889 -0.509902
2 1.888474 1.230796 -2.384355
2 1.513053 -1.657973 -1.689712
2 -2.105074 0.607004 -0.922843
2 -1.603468 0.177386 2.370707
2 -1.349916 -1.454686 -2.367666
2 -0.135875 0.115668 0.111078
2 -0.029106 1.790114 0.053628
2 -0.848843 -1.578304 0.375903
2 -0.303910 0.973172 -0.452874
2 -1.549049 -0.522511 -1.419994
2 0.326627 -2.158532 1.324170
2 1.922853 -1.646580 2.063329
2 1.003669 -1.180649 -0.399745
2 -2.123975 -1.759741 0.549912
2 -0.152052 -0.692797 -0.556292
2 0.743833 0.026543 -2.254262
2 2.004594 -0.802815 0.701955
2 -0.664555 1.519499 1.126032
2 0.567490 0.570719 -1.156242
2 -0.479225 1.384749 -2.376557
2 1.373173 1.055811 -0.201754
2 -0.459393 2.475100 -2.446120
2 0.811100 -1.092351 1.198667
2 2.060092 2.262746 -0.833572
2 -0.646061 -0.906388 -2.124533
2 1.600217 -0.008984 1.605817
2 -1.232678 2.183748 -0.363662
2 0.376724 -1.403447 -2.245456
2 -0.113557 0.392112 1.673934
