2200
step:0 columns:species,position,velocity     dt:1 cell:105.6755252,100.6694583,132.0944065 mass=1,0.57
1 -51.516819 -45.758845 0.000000 0.035419 0.138061 0.000000
1 -51.516819 -36.607076 0.000000 0.297729 0.186395 0.000000
1 -51.516819 -41.182960 0.000000 0.090898 0.019692 0.000000
1 -51.516819 -27.455307 0.000000 0.138842 -0.195419 0.000000
1 -51.516819 -32.031191 0.000000 -0.085290 -0.112794 0.000000
1 -51.516819 -18.303538 0.000000 -0.058321 -0.058651 0.000000
1 -51.516819 -22.879422 0.000000 -0.076967 0.100143 0.000000
1 -51.516819 -9.151769 0.000000 0.386578 0.158842 0.000000
1 -51.516819 -13.727653 0.000000 0.018094 -0.019047 0.000000
1 -51.516819 0.000000 0.000000 -0.033846 0.203410 0.000000
1 -51.516819 -4.575884 0.000000 -0.180722 0.104735 0.000000
1 -51.516819 9.151769 0.000000 0.214324 0.087095 0.000000
1 -51.516819 4.575884 0.000000 0.002794 0.031836 0.000000
1 -51.516819 18.303538 0.000000 -0.082537 0.151205 0.000000
1 -51.516819 13.727653 0.000000 -0.119244 -0.083911 0.000000
1 -51.516819 27.455307 0.000000 0.149817 0.098692 0.000000
1 -51.516819 22.879422 0.000000 -0.024049 -0.281421 0.000000
1 -51.516819 36.607076 0.000000 -0.048056 0.041080 0.000000
1 -51.516819 32.031191 0.000000 0.236164 0.164971 0.000000
1 -51.516819 45.758845 0.000000 0.295734 -0.123094 0.000000
1 -51.516819 41.182960 0.000000 0.037811 0.079605 0.000000
1 -51.516819 50.334729 0.000000 -0.195855 0.068252 0.000000
0 -47.553986 -46.521492 0.000000 -0.010814 -0.202483 0.000000
0 -47.553986 -49.572082 0.000000 -0.089819 -0.056211 0.000000
1 -47.553986 -48.046787 0.000000 0.038887 -0.023278 0.000000
1 -46.233042 -45.758845 0.000000 0.298892 -0.000196 0.000000
0 -50.195874 -41.945608 0.000000 -0.041911 -0.106380 0.000000
0 -50.195874 -44.996197 0.000000 -0.215966 -0.091799 0.000000
1 -50.195874 -43.470902 0.000000 0.028718 0.152718 0.000000
1 -48.874930 -41.182960 0.000000 -0.060216 -0.019130 0.000000
1 -48.874930 -45.758845 0.000000 0.085873 -0.147751 0.000000
0 -47.553986 -37.369723 0.000000 -0.100444 0.358601 0.000000
0 -47.553986 -40.420313 0.000000 -0.073256 -0.052906 0.000000
1 -47.553986 -38.895018 0.000000 0.262801 -0.199852 0.000000
1 -46.233042 -36.607076 0.000000 0.298916 -0.313885 0.000000
1 -46.233042 -41.182960 0.000000 -0.016050 -0.094931 0.000000
0 -50.195874 -32.793839 0.000000 -0.295508 0.204311 0.000000
0 -50.195874 -35.844428 0.000000 -0.139747 -0.316787 0.000000
1 -50.195874 -34.319134 0.000000 0.117731 -0.110232 0.000000
1 -48.874930 -32.031191 0.000000 0.072590 0.244998 0.000000
1 -48.874930 -36.607076 0.000000 -0.177643 -0.053729 0.000000
0 -47.553986 -28.217954 0.000000 -0.070199 0.040026 0.000000
0 -47.553986 -31.268544 0.000000 -0.362243 0.068873 0.000000
1 -47.553986 -29.743249 0.000000 -0.208774 -0.118387 0.000000
1 -46.233042 -27.455307 0.000000 0.152718 -0.137637 0.000000
1 -46.233042 -32.031191 0.000000 -0.023285 0.011801 0.000000
0 -50.195874 -23.642070 0.000000 0.287839 -0.051748 0.000000
0 -50.195874 -26.692659 0.000000 -0.014004 -0.016098 0.000000
1 -50.195874 -25.167365 0.000000 -0.324581 -0.014670 0.000000
1 -48.874930 -22.879422 0.000000 0.004279 0.008262 0.000000
1 -48.874930 -27.455307 0.000000 -0.114378 -0.077950 0.000000
0 -47.553986 -19.066185 0.000000 0.000278 0.095838 0.000000
0 -47.553986 -22.116775 0.000000 -0.078648 0.109593 0.000000
1 -47.553986 -20.591480 0.000000 0.149917 0.044791 0.000000
1 -46.233042 -18.303538 0.000000 -0.025526 0.070941 0.000000
1 -46.233042 -22.879422 0.000000 0.277563 0.044266 0.000000
0 -50.195874 -14.490301 0.000000 -0.133170 0.157603 0.000000
0 -50.195874 -17.540890 0.000000 0.175839 0.201422 0.000000
1 -50.195874 -16.015596 0.000000 0.069940 -0.010945 0.000000
1 -48.874930 -13.727653 0.000000 -0.056362 -0.041619 0.000000
1 -48.874930 -18.303538 0.000000 0.073931 -0.084689 0.000000
0 -47.553986 -9.914416 0.000000 0.271125 -0.010175 0.000000
0 -47.553986 -12.965006 0.000000 -0.013206 0.032241 0.000000
1 -47.553986 -11.439711 0.000000 0.093568 -0.157623 0.000000
1 -46.233042 -9.151769 0.000000 -0.174065 0.142187 0.000000
1 -46.233042 -13.727653 0.000000 0.063343 0.178632 0.000000
0 -50.195874 -5.338532 0.000000 0.070162 0.172355 0.000000
0 -50.195874 -8.389122 0.000000 0.150258 -0.027323 0.000000
1 -50.195874 -6.863827 0.000000 -0.071816 -0.083172 0.000000
1 -48.874930 -4.575884 0.000000 0.033381 -0.053556 0.000000
1 -48.874930 -9.151769 0.000000 0.279580 -0.280871 0.000000
0 -47.553986 -0.762647 0.000000 -0.018032 -0.039319 0.000000
0 -47.553986 -3.813237 0.000000 -0.292206 0.058039 0.000000
1 -47.553986 -2.287942 0.000000 0.022795 -0.037996 0.000000
1 -46.233042 0.000000 0.000000 -0.123004 -0.332681 0.000000
1 -46.233042 -4.575884 0.000000 -0.229601 -0.239388 0.000000
0 -50.195874 3.813237 0.000000 0.120353 0.174360 0.000000
0 -50.195874 0.762647 0.000000 0.034063 -0.209678 0.000000
1 -50.195874 2.287942 0.000000 -0.185163 -0.081010 0.000000
1 -48.874930 4.575884 0.000000 0.256686 -0.055678 0.000000
1 -48.874930 0.000000 0.000000 -0.093798 -0.129677 0.000000
0 -47.553986 8.389122 0.000000 -0.044827 -0.016071 0.000000
0 -47.553986 5.338532 0.000000 0.128262 -0.001954 0.000000
1 -47.553986 6.863827 0.000000 -0.221389 -0.330428 0.000000
1 -46.233042 9.151769 0.000000 -0.158067 -0.128317 0.000000
1 -46.233042 4.575884 0.000000 0.024211 0.060901 0.000000
0 -50.195874 12.965006 0.000000 -0.220890 -0.053392 0.000000
0 -50.195874 9.914416 0.000000 -0.052054 0.059721 0.000000
1 -50.195874 11.439711 0.000000 -0.004357 0.047090 0.000000
1 -48.874930 13.727653 0.000000 0.298009 -0.188886 0.000000
1 -48.874930 9.151769 0.000000 -0.067958 -0.195488 0.000000
0 -47.553986 17.540890 0.000000 -0.014639 0.189939 0.000000
0 -47.553986 14.490301 0.000000 0.262579 -0.121531 0.000000
1 -47.553986 16.015596 0.000000 -0.013143 -0.167462 0.000000
1 -46.233042 18.303538 0.000000 0.060833 -0.138387 0.000000
1 -46.233042 13.727653 0.000000 -0.266359 0.081795 0.000000
0 -50.195874 22.116775 0.000000 -0.100498 0.038629 0.000000
0 -50.195874 19.066185 0.000000 -0.108808 -0.002664 0.000000
1 -50.195874 20.591480 0.000000 0.031607 0.022438 0.000000
1 -48.874930 22.879422 0.000000 0.033570 0.093582 0.000000
1 -48.874930 18.303538 0.000000 0.017239 -0.052392 0.000000
0 -47.553986 26.692659 0.000000 -0.138295 -0.021020 0.000000
0 -47.553986 23.642070 0.000000 -0.030331 -0.131656 0.000000
1 -47.553986 25.167365 0.000000 0.085999 0.038974 0.000000
1 -46.233042 27.455307 0.000000 0.039363 0.181704 0.000000
1 -46.233042 22.879422 0.000000 -0.214933 -0.136016 0.000000
0 -50.195874 31.268544 0.000000 0.001058 0.162758 0.000000
0 -50.195874 28.217954 0.000000 -0.003413 0.458947 0.000000
1 -50.195874 29.743249 0.000000 -0.119070 -0.373774 0.000000
1 -48.874930 32.031191 0.000000 0.065748 -0.175544 0.000000
1 -48.874930 27.455307 0.000000 0.123212 -0.245544 0.000000
0 -47.553986 35.844428 0.000000 -0.107114 -0.146502 0.000000
0 -47.553986 32.793839 0.000000 -0.104314 -0.004230 0.000000
1 -47.553986 34.319134 0.000000 -0.152002 0.000350 0.000000
1 -46.233042 36.607076 0.000000 0.288645 0.111475 0.000000
1 -46.233042 32.031191 0.000000 0.035854 -0.272865 0.000000
0 -50.195874 40.420313 0.000000 0.159681 0.234578 0.000000
0 -50.195874 37.369723 0.000000 -0.050965 0.153689 0.000000
1 -50.195874 38.895018 0.000000 0.105855 -0.013444 0.000000
1 -48.874930 41.182960 0.000000 -0.049854 0.091823 0.000000
1 -48.874930 36.607076 0.000000 0.202990 0.144783 0.000000
0 -47.553986 44.996197 0.000000 0.241936 0.264451 0.000000
0 -47.553986 41.945608 0.000000 -0.381635 -0.060856 0.000000
1 -47.553986 43.470902 0.000000 -0.021443 -0.084656 0.000000
1 -46.233042 45.758845 0.000000 -0.156384 0.199022 0.000000
1 -46.233042 41.182960 0.000000 -0.121304 0.263442 0.000000
0 -50.195874 49.572082 0.000000 -0.016589 0.249288 0.000000
0 -50.195874 46.521492 0.000000 0.054935 -0.025270 0.000000
1 -50.195874 48.046787 0.000000 0.058026 -0.318331 0.000000
1 -48.874930 50.334729 0.000000 -0.204676 0.011792 0.000000
1 -48.874930 45.758845 0.000000 0.166622 0.082797 0.000000
1 -46.233042 50.334729 0.000000 -0.075317 -0.012146 0.000000
0 -42.270210 -46.521492 0.000000 0.110741 0.295421 0.000000
0 -42.270210 -49.572082 0.000000 -0.065300 0.250699 0.000000
1 -42.270210 -48.046787 0.000000 0.046980 0.053114 0.000000
1 -40.949266 -45.758845 0.000000 0.160711 -0.208797 0.000000
0 -44.912098 -41.945608 0.000000 0.131874 0.046401 0.000000
0 -44.912098 -44.996197 0.000000 -0.014049 -0.016967 0.000000
1 -44.912098 -43.470902 0.000000 0.077700 -0.088932 0.000000
1 -43.591154 -41.182960 0.000000 -0.145635 -0.179170 0.000000
1 -43.591154 -45.758845 0.000000 0.485670 -0.254487 0.000000
0 -42.270210 -37.369723 0.000000 -0.271709 0.009776 0.000000
0 -42.270210 -40.420313 0.000000 0.025890 0.295918 0.000000
1 -42.270210 -38.895018 0.000000 0.093085 -0.015943 0.000000
1 -40.949266 -36.607076 0.000000 0.067916 -0.048554 0.000000
1 -40.949266 -41.182960 0.000000 0.204543 -0.050764 0.000000
0 -44.912098 -32.793839 0.000000 -0.169399 -0.015531 0.000000
0 -44.912098 -35.844428 0.000000 0.020285 0.054383 0.000000
1 -44.912098 -34.319134 0.000000 0.035678 -0.467255 0.000000
1 -43.591154 -32.031191 0.000000 -0.058558 -0.005869 0.000000
1 -43.591154 -36.607076 0.000000 0.111649 -0.187515 0.000000
0 -42.270210 -28.217954 0.000000 0.231701 -0.425522 0.000000
0 -42.270210 -31.268544 0.000000 -0.286962 0.235799 0.000000
1 -42.270210 -29.743249 0.000000 -0.162906 0.111912 0.000000
1 -40.949266 -27.455307 0.000000 0.065101 -0.110939 0.000000
1 -40.949266 -32.031191 0.000000 -0.027180 0.234802 0.000000
0 -44.912098 -23.642070 0.000000 0.027922 -0.119684 0.000000
0 -44.912098 -26.692659 0.000000 -0.154447 -0.152819 0.000000
1 -44.912098 -25.167365 0.000000 -0.151341 0.131909 0.000000
1 -43.591154 -22.879422 0.000000 -0.204308 -0.062963 0.000000
1 -43.591154 -27.455307 0.000000 -0.060320 0.137530 0.000000
0 -42.270210 -19.066185 0.000000 -0.129650 -0.437936 0.000000
0 -42.270210 -22.116775 0.000000 -0.351601 0.003209 0.000000
1 -42.270210 -20.591480 0.000000 0.035203 0.213209 0.000000
1 -40.949266 -18.303538 0.000000 0.075032 -0.052869 0.000000
1 -40.949266 -22.879422 0.000000 -0.075638 0.021239 0.000000
0 -44.912098 -14.490301 0.000000 -0.174852 -0.016617 0.000000
0 -44.912098 -17.540890 0.000000 0.156741 -0.026154 0.000000
1 -44.912098 -16.015596 0.000000 -0.099376 -0.031431 0.000000
1 -43.591154 -13.727653 0.000000 0.173801 -0.080703 0.000000
1 -43.591154 -18.303538 0.000000 -0.012951 -0.111199 0.000000
0 -42.270210 -9.914416 0.000000 -0.103614 0.002494 0.000000
0 -42.270210 -12.965006 0.000000 0.082206 0.019963 0.000000
1 -42.270210 -11.439711 0.000000 0.363162 0.232880 0.000000
1 -40.949266 -9.151769 0.000000 0.025617 0.116445 0.000000
1 -40.949266 -13.727653 0.000000 0.081204 -0.159769 0.000000
0 -44.912098 -5.338532 0.000000 0.008639 0.174564 0.000000
0 -44.912098 -8.389122 0.000000 -0.019868 0.212913 0.000000
1 -44.912098 -6.863827 0.000000 -0.069860 0.138657 0.000000
1 -43.591154 -4.575884 0.000000 0.070077 -0.182964 0.000000
1 -43.591154 -9.151769 0.000000 -0.124931 -0.011714 0.000000
0 -42.270210 -0.762647 0.000000 0.078291 -0.153380 0.000000
0 -42.270210 -3.813237 0.000000 -0.223740 0.135357 0.000000
1 -42.270210 -2.287942 0.000000 -0.129673 0.361578 0.000000
1 -40.949266 0.000000 0.000000 0.089147 0.127104 0.000000
1 -40.949266 -4.575884 0.000000 -0.003370 0.302045 0.000000
0 -44.912098 3.813237 0.000000 -0.325087 -0.131838 0.000000
0 -44.912098 0.762647 0.000000 -0.130099 0.104305 0.000000
1 -44.912098 2.287942 0.000000 0.044123 0.486583 0.000000
1 -43.591154 4.575884 0.000000 0.108832 -0.157274 0.000000
1 -43.591154 0.000000 0.000000 0.109382 0.003728 0.000000
0 -42.270210 8.389122 0.000000 0.043502 -0.009473 0.000000
0 -42.270210 5.338532 0.000000 -0.021097 -0.209126 0.000000
1 -42.270210 6.863827 0.000000 0.058603 -0.211843 0.000000
1 -40.949266 9.151769 0.000000 0.065199 0.088349 0.000000
1 -40.949266 4.575884 0.000000 0.143283 0.141451 0.000000
0 -44.912098 12.965006 0.000000 0.139669 0.113012 0.000000
0 -44.912098 9.914416 0.000000 0.065693 0.031974 0.000000
1 -44.912098 11.439711 0.000000 0.040026 0.117555 0.000000
1 -43.591154 13.727653 0.000000 0.018984 -0.053885 0.000000
1 -43.591154 9.151769 0.000000 -0.271435 0.129385 0.000000
0 -42.270210 17.540890 0.000000 -0.073250 0.009389 0.000000
0 -42.270210 14.490301 0.000000 -0.078404 0.207883 0.000000
1 -42.270210 16.015596 0.000000 -0.206787 -0.185218 0.000000
1 -40.949266 18.303538 0.000000 -0.073269 -0.037297 0.000000
1 -40.949266 13.727653 0.000000 -0.085934 0.148710 0.000000
0 -44.912098 22.116775 0.000000 -0.000406 0.020285 0.000000
0 -44.912098 19.066185 0.000000 0.087163 0.016356 0.000000
1 -44.912098 20.591480 0.000000 -0.172173 -0.141916 0.000000
1 -43.591154 22.879422 0.000000 0.008167 0.009890 0.000000
1 -43.591154 18.303538 0.000000 -0.353948 0.537063 0.000000
0 -42.270210 26.692659 0.000000 -0.008523 -0.016070 0.000000
0 -42.270210 23.642070 0.000000 -0.006221 0.085506 0.000000
1 -42.270210 25.167365 0.000000 0.003318 0.052445 0.000000
1 -40.949266 27.455307 0.000000 -0.097596 0.198261 0.000000
1 -40.949266 22.879422 0.000000 0.145064 -0.103481 0.000000
0 -44.912098 31.268544 0.000000 0.143952 0.046821 0.000000
0 -44.912098 28.217954 0.000000 0.079646 0.008723 0.000000
1 -44.912098 29.743249 0.000000 0.009085 0.217381 0.000000
1 -43.591154 32.031191 0.000000 -0.134300 -0.099798 0.000000
1 -43.591154 27.455307 0.000000 0.154423 0.048697 0.000000
0 -42.270210 35.844428 0.000000 0.062940 -0.049145 0.000000
0 -42.270210 32.793839 0.000000 -0.073750 -0.137367 0.000000
1 -42.270210 34.319134 0.000000 -0.070367 0.200798 0.000000
1 -40.949266 36.607076 0.000000 0.041576 -0.130912 0.000000
1 -40.949266 32.031191 0.000000 0.101360 0.263797 0.000000
0 -44.912098 40.420313 0.000000 0.118760 -0.062544 0.000000
0 -44.912098 37.369723 0.000000 -0.101110 0.007836 0.000000
1 -44.912098 38.895018 0.000000 -0.300329 0.047919 0.000000
1 -43.591154 41.182960 0.000000 -0.127018 -0.153331 0.000000
1 -43.591154 36.607076 0.000000 -0.055906 -0.195679 0.000000
0 -42.270210 44.996197 0.000000 -0.040775 -0.030362 0.000000
0 -42.270210 41.945608 0.000000 0.132071 -0.156960 0.000000
1 -42.270210 43.470902 0.000000 -0.124296 -0.048092 0.000000
1 -40.949266 45.758845 0.000000 -0.068689 0.151848 0.000000
1 -40.949266 41.182960 0.000000 0.113316 -0.153989 0.000000
0 -44.912098 49.572082 0.000000 0.116941 0.189706 0.000000
0 -44.912098 46.521492 0.000000 -0.039442 -0.189664 0.000000
1 -44.912098 48.046787 0.000000 -0.150745 0.138144 0.000000
1 -43.591154 50.334729 0.000000 0.054485 -0.145699 0.000000
1 -43.591154 45.758845 0.000000 0.070543 -0.397152 0.000000
1 -40.949266 50.334729 0.000000 0.000617 0.113852 0.000000
0 -36.986434 -46.521492 0.000000 -0.361040 0.023550 0.000000
0 -36.986434 -49.572082 0.000000 0.175470 0.070585 0.000000
1 -36.986434 -48.046787 0.000000 -0.001479 -0.076980 0.000000
1 -35.665490 -45.758845 0.000000 -0.278516 -0.349264 0.000000
0 -39.628322 -41.945608 0.000000 0.062657 0.047698 0.000000
0 -39.628322 -44.996197 0.000000 -0.176311 0.038078 0.000000
1 -39.628322 -43.470902 0.000000 0.194790 0.000104 0.000000
1 -38.307378 -41.182960 0.000000 0.046880 -0.024356 0.000000
1 -38.307378 -45.758845 0.000000 -0.035487 -0.060588 0.000000
0 -36.986434 -37.369723 0.000000 0.255566 -0.045548 0.000000
0 -36.986434 -40.420313 0.000000 0.038859 -0.247113 0.000000
1 -36.986434 -38.895018 0.000000 0.483599 -0.001736 0.000000
1 -35.665490 -36.607076 0.000000 -0.217357 -0.100550 0.000000
1 -35.665490 -41.182960 0.000000 0.060297 0.172343 0.000000
0 -39.628322 -32.793839 0.000000 -0.224958 -0.068202 0.000000
0 -39.628322 -35.844428 0.000000 0.196970 -0.177456 0.000000
1 -39.628322 -34.319134 0.000000 0.059964 -0.204800 0.000000
1 -38.307378 -32.031191 0.000000 -0.007889 0.148324 0.000000
1 -38.307378 -36.607076 0.000000 -0.213018 -0.102340 0.000000
0 -36.986434 -28.217954 0.000000 -0.186264 -0.120147 0.000000
0 -36.986434 -31.268544 0.000000 0.052072 -0.006958 0.000000
1 -36.986434 -29.743249 0.000000 0.109119 0.126573 0.000000
1 -35.665490 -27.455307 0.000000 0.048873 0.171644 0.000000
1 -35.665490 -32.031191 0.000000 -0.405832 0.079918 0.000000
0 -39.628322 -23.642070 0.000000 -0.208047 0.030291 0.000000
0 -39.628322 -26.692659 0.000000 -0.013868 -0.042495 0.000000
1 -39.628322 -25.167365 0.000000 0.049828 -0.095648 0.000000
1 -38.307378 -22.879422 0.000000 0.053114 -0.187856 0.000000
1 -38.307378 -27.455307 0.000000 0.085826 0.218547 0.000000
0 -36.986434 -19.066185 0.000000 -0.152426 0.237482 0.000000
0 -36.986434 -22.116775 0.000000 -0.155209 0.400024 0.000000
1 -36.986434 -20.591480 0.000000 0.352476 0.069607 0.000000
1 -35.665490 -18.303538 0.000000 0.009360 0.017918 0.000000
1 -35.665490 -22.879422 0.000000 -0.218034 -0.085861 0.000000
0 -39.628322 -14.490301 0.000000 0.166929 -0.257725 0.000000
0 -39.628322 -17.540890 0.000000 -0.031397 0.316371 0.000000
1 -39.628322 -16.015596 0.000000 -0.073487 0.028656 0.000000
1 -38.307378 -13.727653 0.000000 0.042492 0.074412 0.000000
1 -38.307378 -18.303538 0.000000 0.217593 -0.200787 0.000000
0 -36.986434 -9.914416 0.000000 -0.009733 -0.051886 0.000000
0 -36.986434 -12.965006 0.000000 -0.007340 0.210619 0.000000
1 -36.986434 -11.439711 0.000000 -0.007306 0.085704 0.000000
1 -35.665490 -9.151769 0.000000 0.130039 0.144621 0.000000
1 -35.665490 -13.727653 0.000000 -0.105481 -0.137210 0.000000
0 -39.628322 -5.338532 0.000000 -0.007935 -0.048728 0.000000
0 -39.628322 -8.389122 0.000000 -0.039114 0.046316 0.000000
1 -39.628322 -6.863827 0.000000 -0.110126 0.145256 0.000000
1 -38.307378 -4.575884 0.000000 -0.007723 -0.094613 0.000000
1 -38.307378 -9.151769 0.000000 0.043546 -0.108461 0.000000
0 -36.986434 -0.762647 0.000000 -0.037078 0.009720 0.000000
0 -36.986434 -3.813237 0.000000 0.119003 -0.142045 0.000000
1 -36.986434 -2.287942 0.000000 0.230921 0.068525 0.000000
1 -35.665490 0.000000 0.000000 -0.149793 -0.209984 0.000000
1 -35.665490 -4.575884 0.000000 0.049848 -0.009781 0.000000
0 -39.628322 3.813237 0.000000 -0.270812 -0.005591 0.000000
0 -39.628322 0.762647 0.000000 -0.062504 0.079257 0.000000
1 -39.628322 2.287942 0.000000 -0.120173 0.231530 0.000000
1 -38.307378 4.575884 0.000000 -0.001071 0.312932 0.000000
1 -38.307378 0.000000 0.000000 -0.286215 -0.225526 0.000000
0 -36.986434 8.389122 0.000000 -0.224357 0.048881 0.000000
0 -36.986434 5.338532 0.000000 0.160133 0.139358 0.000000
1 -36.986434 6.863827 0.000000 -0.153383 0.056878 0.000000
1 -35.665490 9.151769 0.000000 -0.139870 0.295895 0.000000
1 -35.665490 4.575884 0.000000 -0.120227 0.209785 0.000000
0 -39.628322 12.965006 0.000000 0.225590 0.170822 0.000000
0 -39.628322 9.914416 0.000000 -0.024966 -0.058700 0.000000
1 -39.628322 11.439711 0.000000 0.121483 0.052632 0.000000
1 -38.307378 13.727653 0.000000 0.092413 0.135388 0.000000
1 -38.307378 9.151769 0.000000 0.050631 0.297755 0.000000
0 -36.986434 17.540890 0.000000 -0.146479 -0.080710 0.000000
0 -36.986434 14.490301 0.000000 -0.052300 0.102164 0.000000
1 -36.986434 16.015596 0.000000 -0.340679 0.062007 0.000000
1 -35.665490 18.303538 0.000000 0.071135 -0.142877 0.000000
1 -35.665490 13.727653 0.000000 -0.028140 0.184539 0.000000
0 -39.628322 22.116775 0.000000 0.122493 0.128114 0.000000
0 -39.628322 19.066185 0.000000 -0.230307 0.102876 0.000000
1 -39.628322 20.591480 0.000000 -0.030399 0.086514 0.000000
1 -38.307378 22.879422 0.000000 0.098854 -0.136773 0.000000
1 -38.307378 18.303538 0.000000 -0.094121 -0.066553 0.000000
0 -36.986434 26.692659 0.000000 0.199290 -0.142003 0.000000
0 -36.986434 23.642070 0.000000 0.037043 0.096397 0.000000
1 -36.986434 25.167365 0.000000 -0.120361 -0.238160 0.000000
1 -35.665490 27.455307 0.000000 0.279360 0.120309 0.000000
1 -35.665490 22.879422 0.000000 -0.211817 0.010552 0.000000
0 -39.628322 31.268544 0.000000 -0.124730 -0.192087 0.000000
0 -39.628322 28.217954 0.000000 -0.013875 -0.212082 0.000000
1 -39.628322 29.743249 0.000000 -0.015121 0.311664 0.000000
1 -38.307378 32.031191 0.000000 -0.159900 -0.204103 0.000000
1 -38.307378 27.455307 0.000000 -0.062469 -0.303400 0.000000
0 -36.986434 35.844428 0.000000 0.203100 -0.240536 0.000000
0 -36.986434 32.793839 0.000000 -0.303116 0.000401 0.000000
1 -36.986434 34.319134 0.000000 0.055814 -0.009277 0.000000
1 -35.665490 36.607076 0.000000 -0.048000 -0.196003 0.000000
1 -35.665490 32.031191 0.000000 -0.047833 -0.230199 0.000000
0 -39.628322 40.420313 0.000000 0.115904 -0.123492 0.000000
0 -39.628322 37.369723 0.000000 -0.444312 0.214603 0.000000
1 -39.628322 38.895018 0.000000 -0.040155 -0.014244 0.000000
1 -38.307378 41.182960 0.000000 0.260429 -0.001347 0.000000
1 -38.307378 36.607076 0.000000 0.074760 0.029220 0.000000
0 -36.986434 44.996197 0.000000 -0.039777 0.154332 0.000000
0 -36.986434 41.945608 0.000000 -0.071289 -0.176618 0.000000
1 -36.986434 43.470902 0.000000 0.073312 0.184600 0.000000
1 -35.665490 45.758845 0.000000 -0.105851 0.078290 0.000000
1 -35.665490 41.182960 0.000000 0.086481 -0.153681 0.000000
0 -39.628322 49.572082 0.000000 -0.072206 0.003851 0.000000
0 -39.628322 46.521492 0.000000 0.016446 -0.202867 0.000000
1 -39.628322 48.046787 0.000000 0.117035 -0.085386 0.000000
1 -38.307378 50.334729 0.000000 -0.377079 0.335161 0.000000
1 -38.307378 45.758845 0.000000 -0.179460 0.094298 0.000000
1 -35.665490 50.334729 0.000000 -0.027789 0.061237 0.000000
0 -31.702658 -46.521492 0.000000 0.237715 -0.040613 0.000000
0 -31.702658 -49.572082 0.000000 -0.132449 -0.092031 0.000000
1 -31.702658 -48.046787 0.000000 -0.226973 -0.153759 0.000000
1 -30.381713 -45.758845 0.000000 0.296065 -0.080781 0.000000
0 -34.344546 -41.945608 0.000000 0.264557 -0.143996 0.000000
0 -34.344546 -44.996197 0.000000 0.265573 -0.103864 0.000000
1 -34.344546 -43.470902 0.000000 0.013052 0.122262 0.000000
1 -33.023602 -41.182960 0.000000 -0.001959 -0.018970 0.000000
1 -33.023602 -45.758845 0.000000 0.177779 -0.093868 0.000000
0 -31.702658 -37.369723 0.000000 0.100720 0.305224 0.000000
0 -31.702658 -40.420313 0.000000 0.201841 -0.219837 0.000000
1 -31.702658 -38.895018 0.000000 0.054572 0.086334 0.000000
1 -30.381713 -36.607076 0.000000 -0.162321 0.092002 0.000000
1 -30.381713 -41.182960 0.000000 0.384742 0.246064 0.000000
0 -34.344546 -32.793839 0.000000 0.260925 0.245091 0.000000
0 -34.344546 -35.844428 0.000000 0.006518 0.276919 0.000000
1 -34.344546 -34.319134 0.000000 0.003422 -0.071584 0.000000
1 -33.023602 -32.031191 0.000000 -0.191416 0.065547 0.000000
1 -33.023602 -36.607076 0.000000 0.136113 0.129381 0.000000
0 -31.702658 -28.217954 0.000000 -0.299157 -0.065309 0.000000
0 -31.702658 -31.268544 0.000000 -0.040653 0.025656 0.000000
1 -31.702658 -29.743249 0.000000 0.030173 -0.346108 0.000000
1 -30.381713 -27.455307 0.000000 0.371981 0.253103 0.000000
1 -30.381713 -32.031191 0.000000 0.017617 0.179164 0.000000
0 -34.344546 -23.642070 0.000000 0.162507 -0.023503 0.000000
0 -34.344546 -26.692659 0.000000 0.151076 -0.031681 0.000000
1 -34.344546 -25.167365 0.000000 0.047714 0.031522 0.000000
1 -33.023602 -22.879422 0.000000 0.383123 -0.080881 0.000000
1 -33.023602 -27.455307 0.000000 -0.164264 0.034851 0.000000
0 -31.702658 -19.066185 0.000000 0.176590 -0.279142 0.000000
0 -31.702658 -22.116775 0.000000 0.163659 0.003762 0.000000
1 -31.702658 -20.591480 0.000000 0.006009 0.005042 0.000000
1 -30.381713 -18.303538 0.000000 -0.315675 -0.005606 0.000000
1 -30.381713 -22.879422 0.000000 -0.138011 -0.055104 0.000000
0 -34.344546 -14.490301 0.000000 -0.026186 0.023110 0.000000
0 -34.344546 -17.540890 0.000000 0.274121 0.077738 0.000000
1 -34.344546 -16.015596 0.000000 0.037064 0.078813 0.000000
1 -33.023602 -13.727653 0.000000 -0.147691 0.412223 0.000000
1 -33.023602 -18.303538 0.000000 -0.091375 0.034733 0.000000
0 -31.702658 -9.914416 0.000000 -0.115294 0.079102 0.000000
0 -31.702658 -12.965006 0.000000 -0.053759 -0.163739 0.000000
1 -31.702658 -11.439711 0.000000 0.113144 0.048170 0.000000
1 -30.381713 -9.151769 0.000000 -0.248155 -0.055820 0.000000
1 -30.381713 -13.727653 0.000000 -0.204625 0.231765 0.000000
0 -34.344546 -5.338532 0.000000 0.097508 0.133088 0.000000
0 -34.344546 -8.389122 0.000000 -0.022768 -0.004694 0.000000
1 -34.344546 -6.863827 0.000000 -0.071420 -0.039784 0.000000
1 -33.023602 -4.575884 0.000000 -0.085057 0.257322 0.000000
1 -33.023602 -9.151769 0.000000 -0.215254 -0.044687 0.000000
0 -31.702658 -0.762647 0.000000 0.092787 0.150804 0.000000
0 -31.702658 -3.813237 0.000000 -0.116604 -0.056273 0.000000
1 -31.702658 -2.287942 0.000000 -0.182889 -0.069050 0.000000
1 -30.381713 0.000000 0.000000 0.194182 -0.018780 0.000000
1 -30.381713 -4.575884 0.000000 -0.205960 -0.316249 0.000000
0 -34.344546 3.813237 0.000000 -0.104591 0.169838 0.000000
0 -34.344546 0.762647 0.000000 -0.032046 0.107923 0.000000
1 -34.344546 2.287942 0.000000 0.013963 -0.119384 0.000000
1 -33.023602 4.575884 0.000000 -0.190396 -0.168762 0.000000
1 -33.023602 0.000000 0.000000 0.043560 0.091020 0.000000
0 -31.702658 8.389122 0.000000 0.066347 0.042982 0.000000
0 -31.702658 5.338532 0.000000 -0.228860 0.132008 0.000000
1 -31.702658 6.863827 0.000000 0.222012 0.101223 0.000000
1 -30.381713 9.151769 0.000000 0.101489 -0.014530 0.000000
1 -30.381713 4.575884 0.000000 -0.116948 -0.095348 0.000000
0 -34.344546 12.965006 0.000000 -0.251797 -0.162320 0.000000
0 -34.344546 9.914416 0.000000 -0.148165 0.254021 0.000000
1 -34.344546 11.439711 0.000000 0.139868 -0.047904 0.000000
1 -33.023602 13.727653 0.000000 -0.069504 -0.086664 0.000000
1 -33.023602 9.151769 0.000000 -0.005513 -0.169863 0.000000
0 -31.702658 17.540890 0.000000 0.109889 -0.027124 0.000000
0 -31.702658 14.490301 0.000000 -0.265200 0.189551 0.000000
1 -31.702658 16.015596 0.000000 -0.011786 -0.214528 0.000000
1 -30.381713 18.303538 0.000000 0.200813 0.147842 0.000000
1 -30.381713 13.727653 0.000000 0.003099 -0.016429 0.000000
0 -34.344546 22.116775 0.000000 -0.090769 -0.199137 0.000000
0 -34.344546 19.066185 0.000000 0.066666 -0.031356 0.000000
1 -34.344546 20.591480 0.000000 -0.055226 -0.199735 0.000000
1 -33.023602 22.879422 0.000000 -0.155372 -0.145002 0.000000
1 -33.023602 18.303538 0.000000 0.310419 -0.112207 0.000000
0 -31.702658 26.692659 0.000000 -0.043089 0.015566 0.000000
0 -31.702658 23.642070 0.000000 0.036334 0.147971 0.000000
1 -31.702658 25.167365 0.000000 0.045344 0.018954 0.000000
1 -30.381713 27.455307 0.000000 -0.112576 0.081442 0.000000
1 -30.381713 22.879422 0.000000 0.234617 -0.203551 0.000000
0 -34.344546 31.268544 0.000000 -0.080497 -0.029853 0.000000
0 -34.344546 28.217954 0.000000 0.020327 -0.194070 0.000000
1 -34.344546 29.743249 0.000000 -0.041154 0.046915 0.000000
1 -33.023602 32.031191 0.000000 0.170019 -0.060160 0.000000
1 -33.023602 27.455307 0.000000 0.087399 0.258873 0.000000
0 -31.702658 35.844428 0.000000 -0.356614 -0.006286 0.000000
0 -31.702658 32.793839 0.000000 0.206912 0.119097 0.000000
1 -31.702658 34.319134 0.000000 -0.254106 0.206168 0.000000
1 -30.381713 36.607076 0.000000 0.300196 -0.067631 0.000000
1 -30.381713 32.031191 0.000000 0.053008 -0.099703 0.000000
0 -34.344546 40.420313 0.000000 0.004971 -0.087414 0.000000
0 -34.344546 37.369723 0.000000 -0.151930 0.060768 0.000000
1 -34.344546 38.895018 0.000000 -0.031321 -0.133353 0.000000
1 -33.023602 41.182960 0.000000 -0.154369 0.117640 0.000000
1 -33.023602 36.607076 0.000000 0.106437 0.107868 0.000000
0 -31.702658 44.996197 0.000000 0.051925 0.029465 0.000000
0 -31.702658 41.945608 0.000000 -0.074538 0.247152 0.000000
1 -31.702658 43.470902 0.000000 -0.094250 0.157246 0.000000
1 -30.381713 45.758845 0.000000 0.109167 -0.131986 0.000000
1 -30.381713 41.182960 0.000000 -0.437166 0.022401 0.000000
0 -34.344546 49.572082 0.000000 0.134910 0.107322 0.000000
0 -34.344546 46.521492 0.000000 -0.308261 0.154110 0.000000
1 -34.344546 48.046787 0.000000 -0.145271 0.060602 0.000000
1 -33.023602 50.334729 0.000000 0.039021 -0.076019 0.000000
1 -33.023602 45.758845 0.000000 -0.025156 0.155579 0.000000
1 -30.381713 50.334729 0.000000 -0.092146 0.035902 0.000000
0 -26.418881 -46.521492 0.000000 -0.320319 0.155370 0.000000
0 -26.418881 -49.572082 0.000000 -0.263720 0.015472 0.000000
1 -26.418881 -48.046787 0.000000 0.148365 0.067911 0.000000
1 -25.097937 -45.758845 0.000000 0.063876 -0.088370 0.000000
0 -29.060769 -41.945608 0.000000 -0.262115 0.031535 0.000000
0 -29.060769 -44.996197 0.000000 0.122269 0.051945 0.000000
1 -29.060769 -43.470902 0.000000 0.090402 0.387191 0.000000
1 -27.739825 -41.182960 0.000000 0.007829 -0.086111 0.000000
1 -27.739825 -45.758845 0.000000 0.180623 0.075769 0.000000
0 -26.418881 -37.369723 0.000000 0.155144 -0.232826 0.000000
0 -26.418881 -40.420313 0.000000 -0.044261 -0.108671 0.000000
1 -26.418881 -38.895018 0.000000 0.089307 -0.071739 0.000000
1 -25.097937 -36.607076 0.000000 -0.127409 -0.094695 0.000000
1 -25.097937 -41.182960 0.000000 -0.003192 0.070537 0.000000
0 -29.060769 -32.793839 0.000000 0.098514 -0.061915 0.000000
0 -29.060769 -35.844428 0.000000 -0.033816 0.084795 0.000000
1 -29.060769 -34.319134 0.000000 0.046448 -0.171526 0.000000
1 -27.739825 -32.031191 0.000000 -0.154948 0.094793 0.000000
1 -27.739825 -36.607076 0.000000 -0.016242 -0.257948 0.000000
0 -26.418881 -28.217954 0.000000 -0.247632 0.073545 0.000000
0 -26.418881 -31.268544 0.000000 -0.130474 0.176873 0.000000
1 -26.418881 -29.743249 0.000000 -0.056688 -0.022441 0.000000
1 -25.097937 -27.455307 0.000000 -0.084040 -0.016686 0.000000
1 -25.097937 -32.031191 0.000000 0.008979 0.093979 0.000000
0 -29.060769 -23.642070 0.000000 -0.010879 0.066890 0.000000
0 -29.060769 -26.692659 0.000000 0.160865 -0.008932 0.000000
1 -29.060769 -25.167365 0.000000 0.024534 0.122620 0.000000
1 -27.739825 -22.879422 0.000000 0.026688 0.188823 0.000000
1 -27.739825 -27.455307 0.000000 0.046921 0.247057 0.000000
0 -26.418881 -19.066185 0.000000 -0.118401 -0.150957 0.000000
0 -26.418881 -22.116775 0.000000 0.162445 -0.086929 0.000000
1 -26.418881 -20.591480 0.000000 0.001776 -0.046973 0.000000
1 -25.097937 -18.303538 0.000000 0.115421 -0.251928 0.000000